chitosan Film  in water:acetic acid 2%
10903
    1CHTO  H203    1   4.085   7.089   2.449 -0.9091 -1.6608 -1.1385
    1CHTO   O82    2   4.120   7.010   2.485  0.2389 -0.6238  0.0386
    1CHTO  C123    3   4.210   7.040   2.595  0.3754 -0.1442 -0.1598
    1CHTO  H227    4   4.155   7.108   2.663  1.7804 -0.2774  1.1255
    1CHTO   O77    5   4.223   6.912   2.664 -0.2805 -0.3966 -0.2247
    1CHTO  C118    6   4.321   6.908   2.770  0.1440  0.1181 -0.0538
    1CHTO  H222    7   4.313   6.986   2.848 -1.3728 -0.5696  0.4894
    1CHTO  C125    8   4.303   6.771   2.841  1.1688  0.7154 -0.6181
    1CHTO   O84    9   4.375   6.764   2.963 -0.0834 -0.3246 -0.6198
    1CHTO  H205   10   4.380   6.680   3.003  0.5855  0.1979  0.4364
    1CHTO  C114   11   4.458   6.940   2.709  0.3968 -0.2261 -0.3086
    1CHTO  H218   12   4.486   6.861   2.639  1.9562 -0.7117  0.8239
    1CHTO  C116   13   4.459   7.088   2.651  0.6261  0.5687  0.4277
    1CHTO  H220   14   4.421   7.149   2.736  2.4845  2.6957 -0.2138
    1CHTO   O79   15   4.586   7.126   2.608 -0.0318  0.0390  0.4334
    1CHTO  H201   16   4.601   7.217   2.593  0.2947 -0.5861 -3.6541
    1CHTO  C120   17   4.350   7.088   2.536  0.3746  0.0166 -0.3285
    1CHTO  H224   18   4.386   7.018   2.458 -1.7534  0.6834 -1.9630
    1CHTO   N21   19   4.336   7.231   2.488  0.4203 -0.0889 -0.6331
    1CHTO  H211   20   4.345   7.246   2.381  1.5972  1.9283 -0.2912
    1CHTO  H212   21   4.241   7.272   2.518  1.6581  1.1882  1.6705
    1CHTO   O75   22   4.549   6.929   2.821  0.2987  0.0073 -0.3626
    1CHTO  C112   23   4.702   6.894   2.779  0.1466  0.9052 -0.1348
    1CHTO  H216   24   4.728   6.948   2.687  2.3581  1.0822  0.5780
    1CHTO   O73   25   4.714   6.751   2.758 -0.0501  0.2668  0.3096
    1CHTO  C113   26   4.838   6.723   2.697 -0.1586 -0.8007 -0.1891
    1CHTO  H217   27   4.840   6.789   2.608 -0.4208 -1.2445 -0.5256
    1CHTO  C124   28   4.823   6.575   2.649 -0.1247  0.6939 -0.2044
    1CHTO   O83   29   4.809   6.480   2.760 -0.0036 -0.2449  0.2256
    1CHTO  H204   30   4.726   6.439   2.748 -0.5339  0.1798  2.3042
    1CHTO  C109   31   4.957   6.748   2.790  0.1796 -0.2121 -0.6390
    1CHTO  H213   32   4.949   6.680   2.877  0.2864 -1.0915 -1.3097
    1CHTO  C110   33   4.948   6.901   2.836  0.4809  0.0527 -0.8222
    1CHTO  H214   34   4.960   6.970   2.752  0.0757  0.2974 -0.6819
    1CHTO   O78   35   5.044   6.917   2.946 -0.2735  0.6242  0.0477
    1CHTO  H200   36   5.032   6.861   3.020 -1.3602  0.2741 -0.3843
    1CHTO  C111   37   4.808   6.927   2.891  0.4048  0.1269  0.5896
    1CHTO  H215   38   4.788   6.864   2.978  2.8266  2.1393  2.6743
    1CHTO   N19   39   4.797   7.068   2.938 -0.2439  0.1113  0.0716
    1CHTO  H207   40   4.694   7.085   2.966 -0.6986 -2.3073  0.0286
    1CHTO  H208   41   4.809   7.131   2.851 -0.9128  0.1915  0.0347
    1CHTO   O74   42   5.089   6.716   2.731 -0.4706 -0.1929 -0.5326
    1CHTO  C115   43   5.198   6.656   2.828  0.0065 -0.2542  0.4158
    1CHTO  H219   44   5.168   6.660   2.933  1.4431  0.9410  0.7906
    1CHTO   O76   45   5.219   6.492   2.796 -0.7162  0.3682 -0.1407
    1CHTO  C122   46   5.262   6.478   2.658  0.0751 -0.4347  0.2735
    1CHTO  H226   47   5.180   6.504   2.591  1.0514 -1.6564 -1.4023
    1CHTO  C126   48   5.281   6.329   2.640 -0.1988  0.4401 -0.4171
    1CHTO   O85   49   5.372   6.278   2.740 -0.5302  0.3649 -0.4738
    1CHTO  H206   50   5.463   6.286   2.718 -0.3820 -0.5757 -0.2195
    1CHTO  C121   51   5.392   6.568   2.620  0.5599 -0.5008  0.3976
    1CHTO  H225   52   5.471   6.493   2.598  0.7992 -0.3714  0.8195
    1CHTO   O81   53   5.366   6.657   2.508 -0.1081  0.3217 -0.1752
    1CHTO  H202   54   5.285   6.699   2.529  0.9171  1.4810  1.5976
    1CHTO  C119   55   5.440   6.647   2.745 -0.5540 -0.0646 -0.0540
    1CHTO  H223   56   5.461   6.573   2.822  0.0467 -0.6398 -0.7575
    1CHTO  C117   57   5.322   6.741   2.810 -0.6947 -0.0555  0.0632
    1CHTO  H221   58   5.280   6.826   2.756 -1.2544 -0.1424  0.3609
    1CHTO   N20   59   5.379   6.800   2.941  0.2173 -0.0499  0.3128
    1CHTO  H209   60   5.457   6.740   2.986 -0.6261 -1.8866 -0.6402
    1CHTO  H210   61   5.301   6.812   3.014 -1.4082 -2.5483 -0.9455
    1CHTO   O80   62   5.573   6.712   2.728 -0.5399 -0.1406 -0.6604
    1CHTO  C103   63   5.709   6.632   2.772  0.4123 -0.5294 -0.2774
    1CHTO  H190   64   5.761   6.687   2.850  0.9511  0.3127 -1.2171
    1CHTO  C101   65   5.698   6.476   2.813 -0.4809 -0.3782  0.5395
    1CHTO  H188   66   5.635   6.417   2.747  0.2244  1.3075 -1.7057
    1CHTO   O68   67   5.634   6.487   2.952 -0.2814 -0.0188  0.7274
    1CHTO  H168   68   5.542   6.506   2.952 -0.4845 -0.8290 -1.6378
    1CHTO   C99   69   5.844   6.405   2.819 -0.0687  0.2963  0.3087
    1CHTO  H186   70   5.906   6.449   2.899  0.2950 -0.6488  0.5528
    1CHTO   N17   71   5.841   6.262   2.848 -0.3349  0.2324  0.2064
    1CHTO  H174   72   5.787   6.213   2.769 -1.1315  3.8697 -1.6433
    1CHTO  H175   73   5.828   6.228   2.950 -1.6560  0.8418  0.2506
    1CHTO   C97   74   5.920   6.434   2.682  0.1814 -0.7498  0.3392
    1CHTO  H184   75   5.860   6.392   2.600 -0.1226  0.0629  0.1422
    1CHTO   O64   76   5.932   6.581   2.674 -0.4832  0.1020  0.5429
    1CHTO  C104   77   5.805   6.643   2.643  0.6327 -0.4635  0.2223
    1CHTO  H191   78   5.759   6.591   2.559  0.9436 -0.7659  0.2394
    1CHTO  C108   79   5.819   6.783   2.590 -0.4250  0.5197  0.0218
    1CHTO   O71   80   5.919   6.771   2.486 -0.1580  0.2579  0.2101
    1CHTO  H171   81   5.894   6.816   2.408 -1.7156  0.1575  0.6328
    1CHTO   O62   82   6.054   6.379   2.677 -0.5702 -0.1854 -0.0075
    1CHTO   C91   83   6.132   6.382   2.558  0.0667  0.2240  0.1054
    1CHTO  H178   84   6.066   6.417   2.479  1.2685  0.6788 -0.7241
    1CHTO   C92   85   6.165   6.228   2.518  0.8376  0.4645 -0.0170
    1CHTO  H179   86   6.198   6.178   2.610 -1.2430 -2.1244 -0.6260
    1CHTO   O66   87   6.047   6.162   2.464 -0.3113  0.0717 -0.8474
    1CHTO  H166   88   5.973   6.179   2.519  0.5153 -0.7813  0.5389
    1CHTO   C93   89   6.278   6.212   2.409 -0.2268  1.2173 -0.2899
    1CHTO  H180   90   6.243   6.249   2.311 -0.2745  0.4043 -0.5839
    1CHTO   N16   91   6.322   6.070   2.388  0.2564 -0.8277  0.2807
    1CHTO  H172   92   6.361   6.023   2.477 -2.0621  1.1952  2.4268
    1CHTO  H173   93   6.378   6.066   2.295  1.6249  1.3561  0.9532
    1CHTO   C94   94   6.403   6.301   2.450  0.4067  0.6308 -0.6024
    1CHTO  H181   95   6.434   6.281   2.553 -0.7763 -1.8404 -0.6922
    1CHTO   O61   96   6.356   6.431   2.452 -0.4222 -0.1884 -0.0470
    1CHTO   C95   97   6.271   6.467   2.562  0.8802  0.1659  0.1388
    1CHTO  H182   98   6.325   6.453   2.656  0.7502 -0.9182  0.0565
    1CHTO  C106   99   6.256   6.619   2.547  0.1836 -0.2188  0.1575
    1CHTO   O69  100   6.173   6.673   2.647  0.3298  0.2698 -0.4268
    1CHTO  H169  101   6.195   6.646   2.734  0.6564 -0.0018 -0.5951
    1CHTO   O63  102   6.536   6.296   2.332 -0.2335 -0.5011 -0.9944
    1CHTO   C96  103   6.686   6.353   2.376  0.3454 -0.3828  0.2145
    1CHTO  H183  104   6.667   6.454   2.414 -2.3020 -0.6968 -0.1409
    1CHTO   C98  105   6.788   6.368   2.265  0.5149  0.3250 -0.0896
    1CHTO  H185  106   6.728   6.419   2.188 -1.1798 -2.0603 -0.3933
    1CHTO   O67  107   6.891   6.465   2.303  0.1940 -0.3533 -0.6903
    1CHTO  H167  108   6.899   6.524   2.230 -0.3346  0.8571  0.1961
    1CHTO  C102  109   6.858   6.232   2.216  0.0833  0.4917 -0.0215
    1CHTO  H189  110   6.959   6.264   2.185  0.0288  2.3175  1.6432
    1CHTO   N18  111   6.797   6.161   2.098 -0.1484  0.0055 -0.3883
    1CHTO  H176  112   6.690   6.169   2.101 -0.1036  0.1677  1.0000
    1CHTO  H177  113   6.840   6.186   2.002  1.9704 -1.7826  0.0682
    1CHTO  C105  114   6.881   6.138   2.331 -0.2761  0.0387 -0.1442
    1CHTO  H192  115   6.809   6.056   2.335 -1.3830  0.9826 -0.3564
    1CHTO   O65  116   6.876   6.206   2.459  0.4524 -0.0433  0.0615
    1CHTO  C100  117   6.753   6.269   2.495 -0.2387 -0.4065  0.5990
    1CHTO  H187  118   6.679   6.189   2.513  1.7291 -1.4389  4.5952
    1CHTO  C107  119   6.772   6.345   2.631 -0.3600 -0.5254  0.1335
    1CHTO   O70  120   6.806   6.251   2.733 -0.3122  0.2756  0.0856
    1CHTO  H170  121   6.839   6.295   2.809  0.5065 -0.2870  0.0543
    1CHTO   O57  122   7.023   6.074   2.290  0.2988  0.0287  0.0109
    1CHTO   C85  123   7.039   5.939   2.348  0.0125  0.2971 -0.8048
    1CHTO  H157  124   6.946   5.883   2.328 -0.1750  0.0278  0.7508
    1CHTO   C83  125   7.043   5.941   2.502 -0.0059  0.1620  0.0857
    1CHTO  H155  126   6.946   5.976   2.538 -0.4739 -1.1645  0.1719
    1CHTO   O56  127   7.143   6.036   2.543 -0.3989 -0.0437  0.2271
    1CHTO  H135  128   7.114   6.087   2.616  2.7358 -1.2888  2.4768
    1CHTO   C81  129   7.068   5.795   2.542 -0.6059 -0.1576  0.5368
    1CHTO  H153  130   6.993   5.735   2.491 -0.2656  1.6937 -2.3030
    1CHTO   N14  131   7.043   5.764   2.687 -0.1203 -0.1055 -0.2583
    1CHTO  H141  132   7.132   5.720   2.725  0.2245  2.0749  1.4934
    1CHTO  H142  133   7.009   5.845   2.748 -0.4036 -0.5835  0.2222
    1CHTO   C79  134   7.204   5.743   2.483 -0.4956 -0.4974 -0.3520
    1CHTO  H151  135   7.211   5.637   2.508 -2.7126 -1.0467 -1.9382
    1CHTO   O52  136   7.195   5.743   2.340  0.2368 -0.5831 -0.4491
    1CHTO   C86  137   7.169   5.869   2.291  0.1209 -0.0608 -0.0459
    1CHTO  H158  138   7.254   5.936   2.318  0.4265 -0.0942 -0.9123
    1CHTO   C90  139   7.169   5.866   2.134 -0.2307 -0.3422 -0.5392
    1CHTO   O60  140   7.301   5.862   2.093  0.3708  0.2641 -0.2429
    1CHTO  H138  141   7.334   5.947   2.069  0.1282  0.6582  0.7903
    1CHTO   O50  142   7.310   5.808   2.547  0.4979  0.0827 -0.0462
    1CHTO   C73  143   7.456   5.812   2.560 -0.1954  0.7313 -0.6359
    1CHTO  H145  144   7.499   5.806   2.459 -1.2575 -0.3389 -1.0347
    1CHTO   C74  145   7.508   5.693   2.640  0.0843 -0.1967  0.0018
    1CHTO  H146  146   7.465   5.603   2.592 -0.6367  0.3804 -0.4514
    1CHTO   O54  147   7.648   5.673   2.633 -0.5027 -0.3557  0.6469
    1CHTO  H133  148   7.692   5.719   2.702 -0.8839 -1.7106  1.8092
    1CHTO   C75  149   7.457   5.713   2.792 -0.5757 -0.5895  0.1439
    1CHTO  H147  150   7.348   5.699   2.790 -0.3332 -2.5682 -0.8549
    1CHTO   N13  151   7.506   5.613   2.885  0.2520  0.2724 -0.1418
    1CHTO  H139  152   7.438   5.620   2.969 -2.5731 -0.2459 -2.2948
    1CHTO  H140  153   7.606   5.643   2.911  0.0901  1.6870 -1.0541
    1CHTO   C76  154   7.487   5.869   2.852  0.3276  0.2529 -0.3795
    1CHTO  H148  155   7.594   5.885   2.861  0.1536  1.9611 -1.1483
    1CHTO   O49  156   7.435   5.966   2.748  0.1858  0.0997  0.3123
    1CHTO   C77  157   7.501   5.949   2.621  0.0420  0.1604 -0.6928
    1CHTO  H149  158   7.610   5.950   2.627  0.0319  1.5030 -0.4543
    1CHTO   C88  159   7.468   6.069   2.535 -0.1203  0.3079  1.1980
    1CHTO   O58  160   7.513   6.187   2.589 -0.0460  0.3023  0.1010
    1CHTO  H136  161   7.488   6.256   2.531 -0.7336  0.9607  1.1554
    1CHTO   O51  162   7.421   5.895   2.989  0.3562 -0.1143 -0.0687
    1CHTO   C78  163   7.380   6.051   3.022  0.0059  0.2497  0.2781
    1CHTO  H150  164   7.364   6.115   2.932 -1.7407 -0.7785 -0.1580
    1CHTO   C80  165   7.497   6.119   3.101 -0.7375 -0.4897 -0.8935
    1CHTO  H152  166   7.523   6.057   3.190 -1.0248  2.4399  1.3186
    1CHTO   O55  167   7.616   6.116   3.019 -0.5057 -0.5003  0.0465
    1CHTO  H134  168   7.688   6.153   3.066  0.0313 -2.7109  1.0135
    1CHTO   C84  169   7.462   6.271   3.142  0.0946 -0.0631 -0.2456
    1CHTO  H156  170   7.450   6.327   3.050  0.2460  0.5823  0.1215
    1CHTO   N15  171   7.576   6.344   3.221 -0.3405 -0.0310  0.8647
    1CHTO  H143  172   7.588   6.441   3.178  1.2974 -1.1521 -1.3068
    1CHTO  H144  173   7.552   6.358   3.325 -0.3389  2.9792  0.5191
    1CHTO   C87  174   7.340   6.255   3.232 -0.4043 -0.0144 -0.4625
    1CHTO  H159  175   7.368   6.187   3.312  2.3330  1.1351 -0.4027
    1CHTO   O53  176   7.220   6.182   3.154 -0.1389  0.2087 -0.1533
    1CHTO   C82  177   7.248   6.050   3.099 -1.1671  0.6281  0.8169
    1CHTO  H154  178   7.259   5.985   3.186  4.1333  2.4067  1.7043
    1CHTO   C89  179   7.121   6.004   3.013  0.2042  0.1764 -0.1341
    1CHTO   O59  180   7.099   6.079   2.896 -0.5049 -0.0581 -0.3099
    1CHTO  H137  181   7.131   6.165   2.917 -1.8259  0.4636 -0.3841
    1CHTO   O45  182   7.284   6.402   3.305  0.3134 -0.6817  1.0378
    1CHTO   C67  183   7.277   6.521   3.220  0.1048  0.4202  0.1888
    1CHTO  H124  184   7.374   6.550   3.181  1.3588  0.0111  2.9203
    1CHTO   C65  185   7.172   6.506   3.102 -0.8343 -0.7628 -0.0258
    1CHTO  H122  186   7.204   6.419   3.045 -1.5617 -2.1225  1.5873
    1CHTO   O44  187   7.175   6.626   3.013  0.0093 -0.2479  0.5089
    1CHTO  H102  188   7.133   6.616   2.930  0.1514  1.8525  0.1429
    1CHTO   C63  189   7.033   6.473   3.166 -0.8992  0.2332 -0.8970
    1CHTO  H120  190   7.046   6.388   3.233 -1.2247  0.2720 -0.7870
    1CHTO   N11  191   6.932   6.417   3.066  0.0261 -0.7397  0.2431
    1CHTO  H108  192   6.950   6.312   3.051 -0.7423 -0.8372 -0.0652
    1CHTO  H109  193   6.888   6.475   2.987 -1.2383 -1.1046  0.6727
    1CHTO   C61  194   6.983   6.594   3.249 -0.1634 -1.2805  0.1718
    1CHTO  H118  195   6.898   6.551   3.303 -0.0266 -2.6586 -0.7022
    1CHTO   O40  196   7.078   6.647   3.352  0.4107  0.2510 -0.6693
    1CHTO   C68  197   7.227   6.634   3.323  0.3514  0.3014  0.0009
    1CHTO  H125  198   7.276   6.607   3.419  1.7697  0.3763 -0.6768
    1CHTO   C72  199   7.284   6.772   3.286 -0.0401  0.7524  0.3097
    1CHTO   O48  200   7.253   6.891   3.365  0.4030 -0.1217 -0.0434
    1CHTO  H105  201   7.307   6.964   3.344 -0.4074  0.6619  0.5591
    1CHTO   O38  202   6.932   6.699   3.162  0.0593  0.8010 -0.0324
    1CHTO   C55  203   6.821   6.780   3.215  0.2185  0.0739  0.5675
    1CHTO  H112  204   6.820   6.776   3.325  0.3563  0.1498  0.5714
    1CHTO   C56  205   6.685   6.723   3.156 -0.8753 -0.6942  0.1258
    1CHTO  H113  206   6.711   6.726   3.049 -1.1340 -0.0561  0.0761
    1CHTO   O42  207   6.675   6.585   3.202 -0.2014  0.2371  0.3911
    1CHTO  H100  208   6.656   6.535   3.125 -0.0658 -0.7348  0.9847
    1CHTO   C57  209   6.563   6.811   3.202 -0.2733  0.4865  0.2297
    1CHTO  H114  210   6.555   6.784   3.307 -0.4222 -3.0103 -0.6325
    1CHTO   N10  211   6.440   6.777   3.123 -0.6251  0.5034 -0.0194
    1CHTO  H106  212   6.356   6.816   3.178 -1.2792 -0.9022 -0.0045
    1CHTO  H107  213   6.451   6.827   3.028  0.6780  1.8572  0.8195
    1CHTO   C58  214   6.578   6.964   3.197  0.1112  0.5774  0.1240
    1CHTO  H115  215   6.559   7.003   3.094 -3.3274  0.3285  0.6306
    1CHTO   O37  216   6.715   7.002   3.225  0.4972  0.2348  0.5288
    1CHTO   C59  217   6.817   6.931   3.166 -0.3850 -0.2753 -0.4710
    1CHTO  H116  218   6.824   6.950   3.059  2.4313  2.1426  0.0699
    1CHTO   C70  219   6.951   6.997   3.213  0.3666 -0.1832  0.4534
    1CHTO   O46  220   7.058   6.986   3.116  0.3060 -0.4625 -0.1906
    1CHTO  H103  221   7.102   6.904   3.120  0.1976 -0.5307 -0.4332
    1CHTO   O39  222   6.469   7.044   3.304 -0.1438 -0.1604 -0.2573
    1CHTO   C60  223   6.461   7.187   3.284  0.1975  1.3180  0.1155
    1CHTO  H117  224   6.540   7.226   3.221 -0.8055  1.1022 -1.3109
    1CHTO   C62  225   6.321   7.217   3.213  0.1668  0.1398  0.2365
    1CHTO  H119  226   6.319   7.160   3.118 -1.4419 -0.6209  0.7017
    1CHTO   O43  227   6.213   7.163   3.283 -0.2614 -0.0199  0.0443
    1CHTO  H101  228   6.199   7.220   3.355  0.8010 -0.6525  0.7704
    1CHTO   C66  229   6.305   7.378   3.182  0.8529  0.2760 -0.3074
    1CHTO  H123  230   6.391   7.409   3.123  2.6037 -0.9204  1.5331
    1CHTO   N12  231   6.187   7.405   3.093 -0.3356  0.2772 -0.2428
    1CHTO  H110  232   6.093   7.393   3.145 -0.7472 -0.3392 -1.1083
    1CHTO  H111  233   6.196   7.510   3.068 -0.1567  0.1083 -0.8925
    1CHTO   C69  234   6.301   7.455   3.314 -1.0915  0.0444 -0.8401
    1CHTO  H126  235   6.216   7.418   3.375 -0.0551  0.2477  0.7589
    1CHTO   O41  236   6.449   7.421   3.390  0.2401  0.0606  0.5875
    1CHTO   C64  237   6.454   7.273   3.413 -0.0467 -0.2683 -0.3051
    1CHTO  H121  238   6.366   7.243   3.473 -0.2390  1.9930  0.6146
    1CHTO   C71  239   6.580   7.259   3.504 -0.5475  0.2576 -0.8086
    1CHTO   O47  240   6.557   7.300   3.641  0.0786  0.1363  0.5598
    1CHTO  H104  241   6.599   7.240   3.698  0.5283  0.7099  0.8349
    1CHTO   O34  242   6.294   7.599   3.290  0.1261 -0.0464 -0.1785
    1CHTO   C49  243   6.328   7.734   3.255  0.2467 -0.3080 -0.3673
    1CHTO   H91  244   6.231   7.766   3.218  0.0630  0.1650  0.5111
    1CHTO   C47  245   6.422   7.732   3.134 -0.1839  0.0119 -0.1272
    1CHTO   H89  246   6.417   7.839   3.105 -0.2677 -0.1704 -0.7893
    1CHTO   O33  247   6.374   7.652   3.019  0.4189  0.1724  0.3168
    1CHTO   H70  248   6.304   7.691   2.970 -1.3692 -1.2892  1.6557
    1CHTO   C45  249   6.574   7.687   3.188  0.3388  0.3446  0.0211
    1CHTO   H87  250   6.566   7.587   3.233  2.4261  0.0352 -0.2432
    1CHTO    N8  251   6.673   7.670   3.077  0.2137 -0.4248  1.0151
    1CHTO   H75  252   6.712   7.764   3.042  0.8458 -1.0441  0.0174
    1CHTO   H76  253   6.753   7.604   3.106  1.5334  1.3781  1.5770
    1CHTO   C43  254   6.615   7.790   3.299  0.5768 -1.0897 -0.1087
    1CHTO   H85  255   6.711   7.763   3.342  1.7548  0.7347 -1.5173
    1CHTO   O29  256   6.513   7.797   3.408  0.1216 -0.0694 -0.2251
    1CHTO   C50  257   6.376   7.814   3.376  0.9624 -0.2045  0.1617
    1CHTO   H92  258   6.318   7.789   3.467  1.3585 -1.1121  0.1765
    1CHTO   C54  259   6.345   7.965   3.355  0.3375 -0.3174 -0.2207
    1CHTO   O36  260   6.205   7.993   3.342 -0.3396  0.2093 -0.4339
    1CHTO   H72  261   6.188   8.078   3.306 -1.6310 -0.0374 -0.4240
    1CHTO   O27  262   6.639   7.919   3.235 -0.5073  0.0902 -0.1441
    1CHTO   C37  263   6.738   8.021   3.203 -0.0253  0.0499 -0.0126
    1CHTO   H79  264   6.748   8.073   3.299 -2.6453 -2.3629  1.6425
    1CHTO   C38  265   6.877   7.984   3.154 -0.1131  0.3644  0.1683
    1CHTO   H80  266   6.869   7.914   3.069 -2.0314 -1.1112  1.5203
    1CHTO   O31  267   6.933   7.904   3.260  0.8252  0.2086  0.2267
    1CHTO   H68  268   7.012   7.865   3.227  0.5374  0.1903 -0.4489
    1CHTO   C39  269   6.975   8.097   3.111 -0.2616 -0.8612  0.0087
    1CHTO   H81  270   6.997   8.153   3.201  1.6702  1.8431 -2.0433
    1CHTO    N7  271   7.109   8.059   3.061  0.6507  0.3032 -0.2840
    1CHTO   H73  272   7.112   7.952   3.079 -0.9654  0.6755  2.4433
    1CHTO   H74  273   7.188   8.113   3.110 -0.8364  2.1335  0.1304
    1CHTO   C40  274   6.894   8.201   3.020 -0.3862  0.3617  0.0821
    1CHTO   H82  275   6.882   8.170   2.916  1.1717  0.2862 -0.0929
    1CHTO   O26  276   6.771   8.238   3.082 -0.5256  0.1144  0.3195
    1CHTO   C41  277   6.686   8.119   3.104  0.1902  0.5989 -0.7770
    1CHTO   H83  278   6.667   8.059   3.014  3.5494 -0.6090 -0.7303
    1CHTO   C52  279   6.543   8.164   3.149  0.5371  0.2195  0.4161
    1CHTO   O35  280   6.487   8.262   3.054 -0.1337  0.0340 -0.0172
    1CHTO   H71  281   6.484   8.218   2.971 -0.5558 -2.2879  1.1838
    1CHTO   O28  282   6.951   8.335   3.021  0.1488  0.1612 -0.5935
    1CHTO   C42  283   6.959   8.413   2.905 -0.1382  0.0897  0.0661
    1CHTO   H84  284   6.867   8.389   2.852 -0.5303  1.8163 -0.0714
    1CHTO   C44  285   7.069   8.397   2.801  0.2688 -0.0123  0.2333
    1CHTO   H86  286   7.158   8.431   2.853 -0.0138  0.8013  0.1818
    1CHTO   O32  287   7.084   8.264   2.771  0.1245 -0.5035 -0.2812
    1CHTO   H69  288   7.053   8.266   2.683 -3.2388  1.0136  0.8504
    1CHTO   C48  289   7.047   8.485   2.673  0.1212 -0.8625  0.0679
    1CHTO   H90  290   7.010   8.416   2.597 -1.1138 -0.0060 -0.1339
    1CHTO    N9  291   7.177   8.531   2.607 -0.6861 -0.2571 -0.1374
    1CHTO   H77  292   7.259   8.479   2.653  0.1890  1.4601  0.2642
    1CHTO   H78  293   7.191   8.638   2.606  0.4794 -0.4127 -0.1974
    1CHTO   C51  294   6.955   8.603   2.681  0.7358  0.0909  0.1130
    1CHTO   H93  295   6.978   8.677   2.604  2.0782 -0.4008  0.0192
    1CHTO   O30  296   6.958   8.660   2.816  0.5787 -0.7480  0.1818
    1CHTO   C46  297   6.951   8.566   2.947 -0.1407  0.1210 -0.2954
    1CHTO   H88  298   7.041   8.583   3.007 -0.4897  1.0616 -0.0202
    1CHTO   C53  299   6.826   8.596   3.029 -0.0454  0.3739  0.1461
    1CHTO   O72  300   6.814   8.737   3.059  0.3190 -0.1357  0.2868
    1CHTO  H199  301   6.879   8.760   3.123 -0.7975 -0.7192  1.6642
    1CHTO   O22  302   6.824   8.555   2.659  0.3615 -0.2256  0.4852
    1CHTO   C31  303   6.726   8.591   2.541  0.2915  0.0691 -0.4006
    1CHTO   H59  304   6.720   8.702   2.544 -2.9966 -0.0848  2.4488
    1CHTO   C29  305   6.790   8.548   2.408 -1.1454 -0.1075  0.6000
    1CHTO   H57  306   6.792   8.438   2.414 -0.2098 -0.0953  0.5090
    1CHTO   O21  307   6.926   8.594   2.402  0.4982 -0.3139 -0.3473
    1CHTO   H37  308   6.970   8.551   2.472 -0.5684  0.6905  0.9636
    1CHTO   C27  309   6.703   8.600   2.283 -0.2500 -0.2248  0.1241
    1CHTO   H55  310   6.702   8.710   2.284 -0.5013 -0.2337  1.3026
    1CHTO    N5  311   6.749   8.543   2.151 -0.5710 -0.7792 -0.2584
    1CHTO   H43  312   6.755   8.626   2.083 -0.5352  0.1788  0.9056
    1CHTO   H44  313   6.678   8.474   2.107 -1.7712  0.6898 -0.6570
    1CHTO   C25  314   6.559   8.540   2.314 -0.0549 -0.4401  0.3091
    1CHTO   H53  315   6.561   8.430   2.303 -2.4290 -0.2446 -2.8807
    1CHTO   O17  316   6.505   8.565   2.448 -0.4065  0.4202  0.7196
    1CHTO   C32  317   6.586   8.540   2.559  0.5609 -0.4729  0.2119
    1CHTO   H60  318   6.595   8.432   2.575 -1.3890 -0.4859  1.3571
    1CHTO   C36  319   6.514   8.611   2.681  0.5786  0.6718  0.0912
    1CHTO   O25  320   6.402   8.536   2.737 -0.1499 -0.3112 -0.5463
    1CHTO   H40  321   6.347   8.605   2.770  1.1146  0.6582 -0.4011
    1CHTO   O15  322   6.454   8.589   2.213  0.1885 -0.7726 -0.4152
    1CHTO   C19  323   6.365   8.546   2.105  0.4133 -0.3803 -0.0893
    1CHTO   H47  324   6.323   8.645   2.082  1.5829 -0.0733 -0.9868
    1CHTO   C20  325   6.424   8.489   1.977 -0.4421  0.3977  0.2609
    1CHTO   H48  326   6.500   8.412   1.999 -0.1800  0.5304 -0.1882
    1CHTO   O19  327   6.493   8.592   1.915 -0.2966 -0.1213 -0.2872
    1CHTO   H35  328   6.534   8.560   1.837 -1.5055 -3.1443  0.2415
    1CHTO   C21  329   6.315   8.432   1.880  0.3282 -0.3883  0.1912
    1CHTO   H49  330   6.264   8.519   1.840  0.4822 -0.7454 -0.8147
    1CHTO    N4  331   6.380   8.342   1.772  0.3155 -0.0424  0.6911
    1CHTO   H41  332   6.310   8.309   1.697  1.3352  0.1471 -0.3615
    1CHTO   H42  333   6.464   8.391   1.723 -0.3314 -1.2019 -1.6253
    1CHTO   C22  334   6.217   8.343   1.955  0.2118 -0.1238  0.1325
    1CHTO   H50  335   6.275   8.265   2.003 -2.3079 -0.5549  2.5540
    1CHTO   O14  336   6.159   8.423   2.056 -0.1024  0.5094 -0.1578
    1CHTO   C23  337   6.252   8.459   2.157  0.5689  0.7654 -0.3413
    1CHTO   H51  338   6.285   8.360   2.193 -0.1590  1.1402  1.4245
    1CHTO   C34  339   6.179   8.535   2.273  0.3040 -0.5200 -0.7512
    1CHTO   O23  340   6.244   8.517   2.399  0.0232  0.0803 -0.1928
    1CHTO   H38  341   6.267   8.594   2.447  3.1482 -0.2690 -1.0148
    1CHTO   O16  342   6.097   8.285   1.890 -0.0839 -0.5927 -0.2895
    1CHTO   C24  343   6.100   8.127   1.876  0.0478 -0.4412 -0.4034
    1CHTO   H52  344   6.201   8.088   1.883  0.1300  0.2578  3.3281
    1CHTO   C26  345   6.033   8.110   1.739  0.1801 -1.4902  0.1836
    1CHTO   H54  346   5.940   8.170   1.736  1.3108  0.1938 -3.3129
    1CHTO   O20  347   6.118   8.157   1.631  0.2854  0.1367  0.0383
    1CHTO   H36  348   6.079   8.230   1.587  0.8987  0.5038  0.1099
    1CHTO   C30  349   6.002   7.953   1.717 -0.2351  0.3940  0.0020
    1CHTO   H58  350   6.097   7.906   1.686  0.5538 -0.4381  3.4789
    1CHTO    N6  351   5.897   7.941   1.609  0.3253 -0.4546  0.4440
    1CHTO   H45  352   5.891   7.841   1.569  0.0456 -0.0922 -0.4323
    1CHTO   H46  353   5.795   7.974   1.623  0.5822  0.7048 -0.3571
    1CHTO   C33  354   5.957   7.870   1.841  0.7363 -0.0136 -0.8101
    1CHTO   H61  355   5.852   7.894   1.867  1.5333  1.0840  1.4940
    1CHTO   O18  356   6.032   7.903   1.955  0.1874 -0.1444 -0.3533
    1CHTO   C28  357   6.013   8.042   1.983 -0.0418  0.3566 -0.8407
    1CHTO   H56  358   5.909   8.072   1.974  0.0808  0.5639 -1.6543
    1CHTO   C35  359   6.074   8.059   2.126 -0.4045 -0.0843  0.3107
    1CHTO   O24  360   6.021   8.170   2.200  0.3797  0.2572  0.1308
    1CHTO   H39  361   5.932   8.168   2.230  0.3661 -2.2410  0.0071
    1CHTO    O9  362   5.962   7.727   1.814 -0.1329 -0.2681 -0.0231
    1CHTO   C13  363   5.931   7.603   1.928  0.3345 -0.6290  0.3030
    1CHTO   H26  364   5.831   7.611   1.975  0.2045  0.7991 -0.1836
    1CHTO   C11  365   6.046   7.608   2.032 -0.5297  0.1159 -0.9143
    1CHTO   H24  366   6.032   7.697   2.094 -1.3635 -0.9414  0.4452
    1CHTO    O8  367   6.176   7.632   1.963 -0.1327 -0.1691  0.4509
    1CHTO    H3  368   6.204   7.721   1.979 -0.2013 -0.0277 -0.2052
    1CHTO    C9  369   6.041   7.486   2.124 -0.3078 -0.4977  0.2148
    1CHTO   H22  370   5.937   7.477   2.159 -0.1229 -1.5204  0.5378
    1CHTO    N2  371   6.136   7.492   2.237 -0.1424  0.3207 -0.4952
    1CHTO   H10  372   6.109   7.423   2.315 -0.4422 -1.8423 -2.4759
    1CHTO   H11  373   6.153   7.597   2.256  0.5284  0.5056 -2.0534
    1CHTO    C7  374   6.062   7.357   2.037  0.1606 -0.3612 -0.3927
    1CHTO   H20  375   5.975   7.301   2.079  0.0056  1.2529  1.4826
    1CHTO    O4  376   6.048   7.367   1.895 -0.5266  0.5986  0.3128
    1CHTO   C14  377   5.942   7.459   1.856 -0.0417  0.3244 -0.4553
    1CHTO   H27  378   5.853   7.403   1.890 -0.1771 -0.5578 -2.1756
    1CHTO   C18  379   5.947   7.448   1.707  0.7982 -0.3302 -0.0173
    1CHTO   O13  380   5.841   7.527   1.645 -0.1183 -0.1383  0.1916
    1CHTO    H7  381   5.813   7.494   1.562 -0.3387  0.2541  0.1060
    1CHTO    O2  382   6.205   7.243   2.073  0.4218 -0.0143  0.1417
    1CHTO    C1  383   6.184   7.111   2.027  0.6603 -0.6102 -0.5188
    1CHTO   H14  384   6.125   7.113   1.934 -1.6521 -0.0095  0.9299
    1CHTO    C2  385   6.122   7.013   2.137 -0.0619  0.3213  0.3497
    1CHTO   H15  386   6.179   7.033   2.229 -0.3465  0.1682  0.5589
    1CHTO    O6  387   5.985   7.059   2.170  0.0539 -0.4421 -0.8164
    1CHTO    H1  388   5.989   7.148   2.199  1.9934 -0.5630 -0.6769
    1CHTO    C3  389   6.126   6.861   2.088 -0.1347  0.4387  0.8923
    1CHTO   H16  390   6.048   6.837   2.014  0.5204  1.2177 -0.0634
    1CHTO    N1  391   6.101   6.774   2.208 -0.0084  1.2283  0.4435
    1CHTO    H8  392   6.004   6.727   2.200  0.1371  1.1503 -1.0299
    1CHTO    H9  393   6.185   6.706   2.220  0.4721  1.8181  0.4659
    1CHTO    C4  394   6.262   6.829   2.009 -0.5094  0.4972 -0.1704
    1CHTO   H17  395   6.339   6.804   2.082  0.0849  0.4797 -0.7983
    1CHTO    O1  396   6.301   6.928   1.913 -0.1452  0.1521 -0.1358
    1CHTO    C5  397   6.316   7.057   1.972 -0.8766 -0.0161  0.4712
    1CHTO   H18  398   6.390   7.047   2.052  0.5039 -0.2456 -0.8174
    1CHTO   C16  399   6.374   7.162   1.869 -0.1218  0.4928 -0.2045
    1CHTO   O11  400   6.497   7.118   1.816  0.1018  0.3983 -0.3448
    1CHTO    H5  401   6.552   7.087   1.886  0.6381 -1.4130 -1.5297
    1CHTO    O3  402   6.243   6.707   1.930 -0.5490  0.0112  0.4177
    1CHTO    C6  403   6.357   6.612   1.926 -0.1061  0.0139 -0.3284
    1CHTO   H19  404   6.447   6.656   1.968  0.4154  1.5495 -2.9698
    1CHTO    C8  405   6.325   6.483   2.002 -0.6664  0.0591  0.2182
    1CHTO   H21  406   6.224   6.450   1.976  0.1753 -1.3379 -1.4023
    1CHTO    O7  407   6.334   6.512   2.143  0.5176  0.0703  0.0316
    1CHTO    H2  408   6.315   6.602   2.165 -1.3117 -0.7396  1.9388
    1CHTO   C12  409   6.423   6.370   1.961 -0.2060 -0.2940 -0.8183
    1CHTO   H25  410   6.520   6.406   2.001 -1.7401  0.0064  2.9222
    1CHTO    N3  411   6.393   6.244   2.031  0.4405 -0.1533  0.3158
    1CHTO   H12  412   6.287   6.222   2.025  0.4157 -0.1567  0.7903
    1CHTO   H13  413   6.448   6.155   2.000  0.2427 -1.2073  2.9079
    1CHTO   C15  414   6.438   6.355   1.805 -0.2227 -0.5090  0.5857
    1CHTO   H28  415   6.347   6.324   1.754 -0.5813  2.0694 -0.4071
    1CHTO   O10  416   6.564   6.246   1.761  0.1813  0.4904 -0.4759
    1CHTO    H4  417   6.587   6.194   1.835  1.1896 -1.1574 -1.9070
    1CHTO    O5  418   6.477   6.479   1.742 -0.8714  0.2392 -0.0716
    1CHTO   C10  419   6.383   6.589   1.774 -0.2094  0.4652 -0.8002
    1CHTO   H23  420   6.292   6.551   1.729 -0.0724  0.3883 -1.0129
    1CHTO   C17  421   6.420   6.726   1.714 -0.0589  0.0050 -0.4231
    1CHTO   O12  422   6.396   6.728   1.573  0.2248  0.0444 -0.3266
    1CHTO    H6  423   6.305   6.711   1.559  0.6275 -1.4764 -1.2472
    2CHTO  H203  424   3.652   5.062   1.424 -0.1713 -0.6148 -0.7463
    2CHTO   O82  425   3.729   5.115   1.425 -0.6218  0.0307 -0.0598
    2CHTO  C123  426   3.789   5.145   1.295 -0.7563  0.1457 -0.4261
    2CHTO  H227  427   3.899   5.143   1.302 -0.8304  1.3410  1.3774
    2CHTO   O77  428   3.751   5.040   1.203 -0.4320 -0.0836 -0.0157
    2CHTO  C118  429   3.794   5.053   1.066 -0.5258 -0.9433 -0.4786
    2CHTO  H222  430   3.902   5.038   1.052 -0.2763  1.6445 -1.6631
    2CHTO  C125  431   3.721   4.940   0.985  0.1206  0.4288 -0.1710
    2CHTO   O84  432   3.780   4.919   0.852  0.3797 -0.1429 -0.6283
    2CHTO  H205  433   3.741   4.836   0.832  2.3181 -2.6156  4.8412
    2CHTO  C114  434   3.769   5.188   0.999 -0.1472  0.0488  0.4098
    2CHTO  H218  435   3.664   5.190   0.968  0.3664 -2.0401 -1.6474
    2CHTO  C116  436   3.799   5.302   1.093  0.6398 -0.1519  0.3894
    2CHTO  H220  437   3.909   5.312   1.102  0.4574  0.5706  1.9685
    2CHTO   O79  438   3.752   5.430   1.038  0.1642 -0.2165  0.2949
    2CHTO  H201  439   3.683   5.468   1.089  1.8060  3.6153 -0.1524
    2CHTO  C120  440   3.735   5.275   1.240  0.6007 -0.5113 -0.3081
    2CHTO  H224  441   3.625   5.264   1.229  0.5931 -0.0617 -0.6748
    2CHTO   N21  442   3.763   5.392   1.328  0.2402 -0.0067  0.2269
    2CHTO  H211  443   3.681   5.460   1.310  0.1853 -0.6701 -2.2768
    2CHTO  H212  444   3.751   5.371   1.433  0.1429 -0.0586  0.2048
    2CHTO   O75  445   3.848   5.185   0.882 -0.3137  0.0319 -0.1248
    2CHTO  C112  446   3.807   5.308   0.772  0.1072  0.8475 -0.0863
    2CHTO  H216  447   3.861   5.398   0.805 -1.4300  1.7735 -0.0241
    2CHTO   O73  448   3.661   5.322   0.773 -0.6379  0.2091 -0.0615
    2CHTO  C113  449   3.614   5.440   0.700  0.1406 -0.6757 -0.5592
    2CHTO  H217  450   3.653   5.532   0.748  0.1164 -1.7531  1.5773
    2CHTO  C124  451   3.458   5.449   0.709  0.1152  0.2168  0.4947
    2CHTO   O83  452   3.421   5.427   0.847 -0.2394 -0.0601 -0.2565
    2CHTO  H204  453   3.339   5.472   0.854 -0.9755 -1.3247 -0.6383
    2CHTO  C109  454   3.662   5.438   0.554 -0.3991  0.6586  0.1537
    2CHTO  H213  455   3.609   5.355   0.504 -1.4016  1.4293 -0.0808
    2CHTO  C110  456   3.814   5.408   0.545 -0.9554  0.3044  0.3911
    2CHTO  H214  457   3.859   5.500   0.583  0.8114  0.0393 -1.0189
    2CHTO   O78  458   3.858   5.403   0.407 -0.1613  0.1051 -0.3028
    2CHTO  H200  459   3.825   5.331   0.355  0.3648  0.9095 -1.7719
    2CHTO  C111  460   3.847   5.278   0.628  0.5659 -0.4978  0.5705
    2CHTO  H215  461   3.788   5.199   0.580  1.2965 -0.5700 -0.2237
    2CHTO   N19  462   3.991   5.236   0.626  0.6489 -0.3856  0.1664
    2CHTO  H207  463   4.049   5.325   0.604 -0.8734  0.8274  0.9542
    2CHTO  H208  464   4.021   5.191   0.720  0.7824  0.1729  0.3939
    2CHTO   O74  465   3.630   5.568   0.495  0.2256 -0.2290 -0.1557
    2CHTO  C115  466   3.516   5.575   0.382  0.1143 -0.0807  0.5775
    2CHTO  H219  467   3.486   5.475   0.349 -1.4508  1.0340 -1.5308
    2CHTO   O76  468   3.373   5.644   0.437  0.1840  0.5871  0.6476
    2CHTO  C122  469   3.396   5.772   0.483 -0.2348 -0.2620 -0.1694
    2CHTO  H226  470   3.458   5.774   0.573 -0.4963 -0.0158  0.0027
    2CHTO  C126  471   3.272   5.862   0.521  0.0277  0.0459 -0.3664
    2CHTO   O85  472   3.192   5.783   0.619 -0.4723  0.1570 -0.5051
    2CHTO  H206  473   3.243   5.718   0.663 -0.3051  1.5474  1.4704
    2CHTO  C121  474   3.477   5.865   0.384 -0.3043  0.1908 -0.0110
    2CHTO  H225  475   3.434   5.965   0.363  3.0171  1.6288 -0.3099
    2CHTO   O81  476   3.612   5.889   0.432 -0.6751 -1.0349  0.4976
    2CHTO  H202  477   3.662   5.810   0.423 -0.1426 -0.7436  0.9459
    2CHTO  C119  478   3.492   5.792   0.250  0.2736 -0.4825 -0.0766
    2CHTO  H223  479   3.393   5.760   0.217  0.3403 -1.5156  0.6906
    2CHTO  C117  480   3.575   5.657   0.260 -0.2150 -0.1325  0.1922
    2CHTO  H221  481   3.682   5.673   0.274 -0.3370  1.1129 -0.3215
    2CHTO   N20  482   3.566   5.579   0.136 -0.1445 -0.1923  0.2845
    2CHTO  H209  483   3.613   5.630   0.054 -2.5900  0.4784 -0.7506
    2CHTO  H210  484   3.627   5.492   0.157 -2.8194 -1.8522  1.5729
    2CHTO   O80  485   3.549   5.882   0.134 -0.9210 -0.5064 -0.2313
    2CHTO  C103  486   3.454   5.981   0.046 -0.2715  0.0266 -0.0703
    2CHTO  H190  487   3.500   5.989  -0.052  0.4591  2.2004  0.4299
    2CHTO  C101  488   3.305   5.927   0.026  0.6449 -0.9894 -1.0811
    2CHTO  H188  489   3.269   5.875   0.115 -0.3688 -0.0563 -0.9355
    2CHTO   O68  490   3.319   5.831  -0.087 -0.4454 -0.4290  0.5568
    2CHTO  H168  491   3.252   5.766  -0.081 -0.6254 -0.1130  2.0789
    2CHTO   C99  492   3.200   6.043  -0.011  0.4270 -0.1181  0.0357
    2CHTO  H186  493   3.216   6.080  -0.114  1.0393  0.7446  0.4401
    2CHTO   N17  494   3.057   5.993   0.003 -0.0006 -0.1238 -0.3518
    2CHTO  H174  495   3.031   5.979   0.107  0.5905 -1.7899 -0.4211
    2CHTO  H175  496   2.992   6.068  -0.039 -0.0606 -0.3670 -0.6932
    2CHTO   C97  497   3.228   6.168   0.083 -0.2008 -0.3675  0.3073
    2CHTO  H184  498   3.224   6.133   0.187  0.8591 -1.5646 -0.0371
    2CHTO   O64  499   3.361   6.209   0.048  0.3104  0.1662 -0.1650
    2CHTO  C104  500   3.461   6.126   0.108 -0.0313 -0.4967  0.2038
    2CHTO  H191  501   3.450   6.124   0.216 -0.6651  0.6953  0.1704
    2CHTO  C108  502   3.587   6.205   0.073 -0.7612  0.0716  0.2524
    2CHTO   O71  503   3.704   6.155   0.140 -0.3830  0.5753  0.4051
    2CHTO  H171  504   3.782   6.186   0.098  0.1344 -0.7483  0.3569
    2CHTO   O62  505   3.142   6.281   0.052  0.3281 -0.1952 -0.1105
    2CHTO   C91  506   3.018   6.311   0.123  0.1763  0.6350 -0.3526
    2CHTO  H178  507   2.993   6.219   0.176 -3.3050  1.4570 -0.4548
    2CHTO   C92  508   2.903   6.332   0.026  0.3496 -0.2461 -0.5087
    2CHTO  H179  509   2.895   6.258  -0.055 -2.4821 -1.3939  0.7456
    2CHTO   O66  510   2.777   6.320   0.094  0.0363  0.5098  0.4091
    2CHTO  H166  511   2.779   6.244   0.149 -0.7727  1.8011  2.2804
    2CHTO   C93  512   2.890   6.475  -0.036 -0.6395 -0.9557  0.1798
    2CHTO  H180  513   2.785   6.494  -0.063 -0.9321  0.4939  2.2515
    2CHTO   N16  514   2.968   6.501  -0.157  0.2735 -0.7245 -0.3203
    2CHTO  H172  515   3.070   6.466  -0.149  0.7784  1.0717  1.4381
    2CHTO  H173  516   2.955   6.601  -0.194 -0.1847 -1.8857 -3.5006
    2CHTO   C94  517   2.920   6.585   0.073 -0.1674  0.0665 -0.6350
    2CHTO  H181  518   3.009   6.643   0.048 -0.6867  0.0689 -2.5383
    2CHTO   O61  519   2.927   6.539   0.206 -0.0427  0.8453 -0.1810
    2CHTO   C95  520   3.028   6.439   0.224 -0.6409 -0.1541 -0.6029
    2CHTO  H182  521   3.125   6.484   0.203  0.0842  0.0169  2.9377
    2CHTO  C106  522   3.020   6.399   0.375 -0.0745 -0.0677 -0.3291
    2CHTO   O69  523   3.089   6.276   0.398 -0.0318  0.1672  0.1206
    2CHTO  H169  524   3.035   6.208   0.364 -1.4296  0.7088  1.2117
    2CHTO   O63  525   2.809   6.682   0.066 -0.5793 -0.1686  0.5315
    2CHTO   C96  526   2.819   6.817   0.106 -0.0648  0.5451 -0.1787
    2CHTO  H183  527   2.923   6.843   0.128 -0.1458  0.4161  0.3714
    2CHTO   C98  528   2.732   6.844   0.237  0.6537 -0.3217  0.4222
    2CHTO  H185  529   2.630   6.804   0.227  0.9253 -0.2794 -3.2545
    2CHTO   O67  530   2.798   6.765   0.335  0.2058 -0.3954  0.0329
    2CHTO  H167  531   2.831   6.823   0.401 -0.6673 -0.5490  0.6187
    2CHTO  C102  532   2.715   7.003   0.274  0.0750  0.1159 -0.1981
    2CHTO  H189  533   2.815   7.033   0.309 -0.5038  2.1679 -0.2346
    2CHTO   N18  534   2.615   7.029   0.384  0.4833 -0.3588  0.2787
    2CHTO  H176  535   2.599   7.135   0.398  1.8871  0.1006 -1.3655
    2CHTO  H177  536   2.651   6.993   0.479  0.4009  0.5105  0.6427
    2CHTO  C105  537   2.679   7.085   0.142 -0.0697 -0.0719  0.1679
    2CHTO  H192  538   2.576   7.065   0.114  0.9022 -2.8140 -1.6473
    2CHTO   O65  539   2.761   7.043   0.034 -0.0100 -0.3948 -0.0207
    2CHTO  C100  540   2.749   6.905  -0.006 -0.3182 -0.0821  0.0958
    2CHTO  H187  541   2.645   6.869  -0.011 -0.0051 -1.0649  0.4632
    2CHTO  C107  542   2.807   6.885  -0.145  0.1355  1.0236 -0.0465
    2CHTO   O70  543   2.739   6.967  -0.237  0.3005 -0.1315 -0.1502
    2CHTO  H170  544   2.649   6.943  -0.247  0.6604 -1.8974  0.5768
    2CHTO   O57  545   2.711   7.252   0.164 -0.0981 -0.0894  0.4257
    2CHTO   C85  546   2.617   7.345   0.129  0.3756  0.4755 -0.5218
    2CHTO  H157  547   2.521   7.309   0.172  0.6666 -1.0126 -1.0824
    2CHTO   C83  548   2.604   7.342  -0.031 -0.3537  0.5013 -0.7781
    2CHTO  H155  549   2.560   7.246  -0.057  2.8041 -1.0006 -0.8786
    2CHTO   O56  550   2.738   7.338  -0.092 -0.1431 -0.0644  0.4200
    2CHTO  H135  551   2.775   7.423  -0.077  1.0424 -0.3947 -0.5647
    2CHTO   C81  552   2.509   7.457  -0.071 -0.1651  0.3296 -0.4869
    2CHTO  H153  553   2.408   7.439  -0.036 -0.5070  0.9778 -1.1375
    2CHTO   N14  554   2.490   7.449  -0.218 -0.2920 -0.0966 -0.1705
    2CHTO  H141  555   2.493   7.548  -0.259  0.5332  0.1825  0.5547
    2CHTO  H142  556   2.575   7.397  -0.258 -0.6020 -0.4562 -0.3592
    2CHTO   C79  557   2.556   7.597  -0.014  0.8830 -0.3329 -0.1324
    2CHTO  H151  558   2.476   7.670  -0.029  2.5648  2.0699  2.1073
    2CHTO   O52  559   2.580   7.595   0.130  0.1872  0.5970  0.5756
    2CHTO   C86  560   2.658   7.485   0.183  0.2384 -0.3074  0.3391
    2CHTO  H158  561   2.764   7.517   0.172  0.0734  0.2520  0.3628
    2CHTO   C90  562   2.634   7.482   0.342 -0.8122 -0.2645 -0.3137
    2CHTO   O60  563   2.496   7.467   0.365 -0.9971  0.0782 -0.2485
    2CHTO  H138  564   2.452   7.546   0.388 -1.7007 -0.4723  0.3598
    2CHTO   O50  565   2.668   7.654  -0.088 -0.3640 -0.1363  0.3705
    2CHTO   C73  566   2.736   7.776  -0.130  0.1821  0.0034  0.2188
    2CHTO  H145  567   2.711   7.868  -0.075 -1.8812 -0.8520  0.7784
    2CHTO   C74  568   2.682   7.818  -0.270 -0.3846  0.2179  0.5903
    2CHTO  H146  569   2.573   7.822  -0.256 -0.6187  1.5110 -1.4703
    2CHTO   O54  570   2.730   7.948  -0.300 -0.0125  0.0788 -0.8592
    2CHTO  H133  571   2.653   7.999  -0.317  0.2569  0.9205  0.4144
    2CHTO   C75  572   2.717   7.702  -0.370 -0.7387  0.4010 -0.2888
    2CHTO  H147  573   2.684   7.604  -0.333 -0.5334  0.8427  1.0658
    2CHTO   N13  574   2.654   7.713  -0.504  0.4966  0.2157  0.8634
    2CHTO  H139  575   2.697   7.799  -0.554  2.2445  0.4678  2.7207
    2CHTO  H140  576   2.690   7.627  -0.559  0.3741  0.7155 -0.0102
    2CHTO   C76  577   2.880   7.685  -0.377  0.7562  0.4194  0.0768
    2CHTO  H148  578   2.922   7.777  -0.418  1.6840  0.2420  0.6174
    2CHTO   O49  579   2.932   7.661  -0.238 -0.5620 -0.2297  0.1679
    2CHTO   C77  580   2.892   7.748  -0.133  0.0720  0.0956  0.8623
    2CHTO  H149  581   2.943   7.843  -0.155  0.6899 -0.8729 -2.0312
    2CHTO   C88  582   2.958   7.712   0.005 -0.1559 -0.1732  0.2553
    2CHTO   O58  583   3.122   7.675  -0.023  0.2563 -0.1046  0.2421
    2CHTO  H136  584   3.174   7.681   0.055  0.6715 -1.0670  0.0530
    2CHTO   O51  585   2.923   7.556  -0.466  0.3955 -0.2391  0.3027
    2CHTO   C78  586   3.041   7.472  -0.408 -0.3913 -0.5708  0.4266
    2CHTO  H150  587   3.065   7.477  -0.300 -0.9036 -0.5197  0.5401
    2CHTO   C80  588   3.169   7.493  -0.482 -1.1147 -0.2678 -0.2306
    2CHTO  H152  589   3.154   7.454  -0.585 -0.0272  2.3794 -1.4345
    2CHTO   O55  590   3.202   7.628  -0.493  0.3683  0.1709  0.2170
    2CHTO  H134  591   3.259   7.649  -0.565 -0.5752 -3.1028 -1.6012
    2CHTO   C84  592   3.293   7.414  -0.428 -0.3828  0.6101 -0.4072
    2CHTO  H156  593   3.310   7.445  -0.325 -1.2283  0.5141 -0.2346
    2CHTO   N15  594   3.425   7.444  -0.499  0.3479 -0.5631 -0.3431
    2CHTO  H143  595   3.438   7.550  -0.501 -0.9820 -0.2964  2.8516
    2CHTO  H144  596   3.413   7.407  -0.599  2.7441 -0.2964 -0.7568
    2CHTO   C87  597   3.252   7.262  -0.427  0.0500  0.1876  0.2267
    2CHTO  H159  598   3.277   7.212  -0.521 -0.2745 -0.0466  0.2634
    2CHTO   O53  599   3.101   7.244  -0.383  0.4442  0.3209  0.5808
    2CHTO   C82  600   3.009   7.328  -0.445 -0.0601  0.0556  0.1461
    2CHTO  H154  601   3.004   7.301  -0.550 -2.0111  0.2252  0.1804
    2CHTO   C89  602   2.869   7.296  -0.386  0.4670 -0.0381  0.2877
    2CHTO   O59  603   2.830   7.166  -0.419  0.3191  0.4004 -0.4537
    2CHTO  H137  604   2.740   7.165  -0.447  0.2467 -0.1849 -0.2064
    2CHTO   O45  605   3.349   7.180  -0.323 -0.2381  0.0850 -0.4139
    2CHTO   C67  606   3.299   7.164  -0.191  0.3643  0.0833 -0.0299
    2CHTO  H124  607   3.225   7.243  -0.173 -0.2624 -0.6821  0.8158
    2CHTO   C65  608   3.235   7.020  -0.177  0.4921 -0.5249  0.1821
    2CHTO  H122  609   3.248   6.970  -0.273  0.1753 -0.2178 -0.0247
    2CHTO   O44  610   3.092   7.038  -0.173 -0.4201 -0.0759  0.1102
    2CHTO  H102  611   3.057   6.979  -0.109  0.6759  1.1467  1.8915
    2CHTO   C63  612   3.306   6.935  -0.076 -0.1421  0.2761 -0.1058
    2CHTO  H120  613   3.412   6.924  -0.101  0.4628  1.7144  1.6911
    2CHTO   N11  614   3.261   6.794  -0.065  0.2715 -0.0481 -0.4047
    2CHTO  H108  615   3.323   6.745   0.007 -0.2692  1.1776  0.9269
    2CHTO  H109  616   3.255   6.741  -0.158  1.2354 -1.9936  0.6190
    2CHTO   C61  617   3.307   7.024   0.061  0.0793 -0.7661  0.4132
    2CHTO  H118  618   3.370   6.967   0.130  0.2431  0.0241  0.9246
    2CHTO   O40  619   3.367   7.152   0.053  0.3285  0.2984 -0.3827
    2CHTO   C68  620   3.408   7.191  -0.085  0.5900  0.0108  0.0710
    2CHTO  H125  621   3.499   7.136  -0.117  1.0980  0.5638  0.5533
    2CHTO   C72  622   3.449   7.337  -0.067  0.8340 -0.2571  0.0558
    2CHTO   O48  623   3.542   7.362   0.035  0.1614  0.2271 -0.1047
    2CHTO  H105  624   3.537   7.454   0.052  0.3377  0.5619 -1.8109
    2CHTO   O38  625   3.173   7.040   0.123  0.5547 -0.0932  0.3043
    2CHTO   C55  626   3.161   7.103   0.253  0.3414  0.7156 -0.3064
    2CHTO  H112  627   3.259   7.140   0.286  1.8178 -2.2587 -1.2219
    2CHTO   C56  628   3.101   6.993   0.351 -0.9766 -0.1523 -0.0478
    2CHTO  H113  629   3.006   6.960   0.306 -0.0131 -1.1994 -1.3768
    2CHTO   O42  630   3.196   6.883   0.345 -0.0259  0.2632 -0.0920
    2CHTO  H100  631   3.187   6.844   0.261  1.2855 -1.2876  0.4720
    2CHTO   C57  632   3.081   7.056   0.491 -0.3215  0.5850  0.4847
    2CHTO  H114  633   3.178   7.088   0.528 -0.0889  1.6054 -0.9879
    2CHTO   N10  634   3.031   6.966   0.603 -1.0918 -0.3555  0.3000
    2CHTO  H106  635   3.057   6.861   0.595  2.6821  0.4681  0.9019
    2CHTO  H107  636   3.077   7.007   0.691 -0.0647 -0.6759 -0.0877
    2CHTO   C58  637   2.992   7.177   0.481 -0.7775  0.0389 -0.1244
    2CHTO  H115  638   2.890   7.148   0.449 -1.3232 -0.5070  2.0304
    2CHTO   O37  639   3.050   7.265   0.380  0.2670  0.4817 -0.3093
    2CHTO   C59  640   3.066   7.221   0.248  0.3799  0.0927  0.6670
    2CHTO  H116  641   2.970   7.195   0.204 -0.8572  2.4626  1.8456
    2CHTO   C70  642   3.123   7.347   0.184 -0.1559  0.5618 -0.1759
    2CHTO   O46  643   3.101   7.343   0.043  0.1127 -0.3512 -0.5172
    2CHTO  H103  644   3.109   7.423  -0.005  0.1956 -1.4398 -2.3665
    2CHTO   O39  645   2.979   7.270   0.618  0.4775 -0.4835  0.2702
    2CHTO   C60  646   2.853   7.345   0.627 -0.5593  0.2187 -0.0440
    2CHTO  H117  647   2.817   7.364   0.526  0.3708 -2.4280 -0.9010
    2CHTO   C62  648   2.754   7.262   0.709 -0.0990 -0.0750  0.0736
    2CHTO  H119  649   2.738   7.172   0.647 -3.4644  0.2259  0.3894
    2CHTO   O43  650   2.814   7.216   0.833 -0.1706 -0.0256 -0.6053
    2CHTO  H101  651   2.892   7.168   0.810  0.8763  1.6316 -0.6675
    2CHTO   C66  652   2.615   7.344   0.730  0.2503  0.3382 -0.1489
    2CHTO  H123  653   2.568   7.358   0.633 -2.0198 -1.1286  0.6951
    2CHTO   N12  654   2.518   7.264   0.809 -0.0316  0.5922 -0.1974
    2CHTO  H110  655   2.464   7.202   0.739  0.5544 -2.5984  2.0906
    2CHTO  H111  656   2.564   7.208   0.888  2.6847  0.2759 -1.9332
    2CHTO   C69  657   2.645   7.485   0.790  0.1266 -0.0431 -0.8616
    2CHTO  H126  658   2.661   7.484   0.900 -0.4230  3.0597 -0.6877
    2CHTO   O41  659   2.778   7.567   0.719 -0.2017  0.5724  0.4808
    2CHTO   C64  660   2.897   7.485   0.694  1.1127  0.8030 -0.7211
    2CHTO  H121  661   2.936   7.462   0.795  1.0600 -0.6302 -1.0155
    2CHTO   C71  662   3.010   7.551   0.612  0.8127 -0.2635 -0.3149
    2CHTO   O47  663   3.073   7.657   0.682 -0.1089 -0.4139 -0.1989
    2CHTO  H104  664   3.141   7.693   0.628 -1.3443  1.4420 -0.5750
    2CHTO   O34  665   2.534   7.560   0.768 -0.3880  0.3067 -0.1385
    2CHTO   C49  666   2.437   7.685   0.816 -0.3300 -0.2592  0.0937
    2CHTO   H91  667   2.370   7.661   0.899  0.5577 -0.3521  0.7868
    2CHTO   C47  668   2.345   7.727   0.696 -0.2555 -0.1454  0.4644
    2CHTO   H89  669   2.275   7.809   0.725  0.0004 -0.3079  1.5474
    2CHTO   O33  670   2.262   7.612   0.668  0.5962 -0.3589  0.2276
    2CHTO   H70  671   2.211   7.632   0.592  0.3277 -0.5406  0.3644
    2CHTO   C45  672   2.441   7.776   0.571  0.4910 -0.8745 -0.6324
    2CHTO   H87  673   2.507   7.690   0.554  1.2311 -0.0014 -2.2715
    2CHTO    N8  674   2.369   7.800   0.443  0.5535  0.3279  0.1931
    2CHTO   H75  675   2.411   7.744   0.360  3.8118  0.9629  1.3277
    2CHTO   H76  676   2.361   7.902   0.409  2.1554  1.0236  1.8603
    2CHTO   C43  677   2.526   7.897   0.627 -0.6798 -0.3434 -0.3206
    2CHTO   H85  678   2.604   7.909   0.551 -1.2082  0.8416 -0.6865
    2CHTO   O29  679   2.577   7.878   0.760 -0.3999 -0.8362 -0.3261
    2CHTO   C50  680   2.514   7.814   0.863 -0.7238  0.6319  0.3250
    2CHTO   H92  681   2.591   7.782   0.935  0.0810 -0.8643 -1.1784
    2CHTO   C54  682   2.430   7.915   0.944 -0.1806  0.3952  0.2593
    2CHTO   O36  683   2.384   7.855   1.066  0.2101 -0.0831  0.0007
    2CHTO   H72  684   2.306   7.806   1.049  0.4038 -0.4107  0.0541
    2CHTO   O27  685   2.451   8.021   0.635 -0.3950 -0.7768  0.2574
    2CHTO   C37  686   2.405   8.155   0.594 -0.0150 -0.5299  0.0303
    2CHTO   H79  687   2.348   8.143   0.501 -0.0132  0.0120 -0.0423
    2CHTO   C38  688   2.308   8.212   0.707  0.0526  0.8126 -0.0121
    2CHTO   H80  689   2.360   8.208   0.803 -1.2843 -2.0761  0.6504
    2CHTO   O31  690   2.190   8.127   0.716  0.5531 -0.0787  0.0294
    2CHTO   H68  691   2.164   8.097   0.631  0.4088  0.1988 -0.0259
    2CHTO   C39  692   2.272   8.361   0.668 -0.6714  0.1803  0.6770
    2CHTO   H81  693   2.219   8.365   0.572  0.4714  5.1788  0.1145
    2CHTO    N7  694   2.177   8.423   0.767  0.0035 -0.2830 -0.2896
    2CHTO   H73  695   2.146   8.526   0.758  3.0924  0.6563 -0.5427
    2CHTO   H74  696   2.091   8.358   0.767  1.7005 -2.5919 -2.9371
    2CHTO   C40  697   2.402   8.445   0.654  0.2370 -0.4438  0.7462
    2CHTO   H82  698   2.452   8.436   0.750 -0.3384  1.1540  1.2142
    2CHTO   O26  699   2.472   8.382   0.547  0.2567 -0.4140  0.6347
    2CHTO   C41  700   2.525   8.248   0.566  0.0777 -1.2989 -1.0279
    2CHTO   H83  701   2.597   8.245   0.648 -0.1329 -2.0812 -0.8639
    2CHTO   C52  702   2.603   8.209   0.437  0.2135 -0.0487  0.2498
    2CHTO   O35  703   2.731   8.280   0.404  0.1125 -0.7263 -0.2595
    2CHTO   H71  704   2.770   8.234   0.332  0.8456 -1.6739  0.7287
    2CHTO   O28  705   2.377   8.578   0.627 -0.2373  0.2676  0.3758
    2CHTO   C42  706   2.464   8.686   0.662  0.3784  0.2949  0.3842
    2CHTO   H84  707   2.404   8.765   0.617 -0.5006 -1.1557 -1.0070
    2CHTO   C44  708   2.605   8.681   0.595 -0.1035  0.1072  0.3612
    2CHTO   H86  709   2.651   8.584   0.616 -0.3290  0.2925  1.7242
    2CHTO   O32  710   2.599   8.696   0.452  0.3543  0.2144 -0.1216
    2CHTO   H69  711   2.682   8.667   0.420  0.3504 -0.4079  0.4048
    2CHTO   C48  712   2.710   8.789   0.646 -0.0252  0.5758  0.0420
    2CHTO   H90  713   2.688   8.878   0.588 -1.3466  0.0134 -0.3311
    2CHTO    N9  714   2.858   8.760   0.611  0.1753  0.5732  0.0263
    2CHTO   H77  715   2.882   8.670   0.665  1.1778  0.3307 -0.8244
    2CHTO   H78  716   2.860   8.742   0.505 -2.7408  0.0572  0.0233
    2CHTO   C51  717   2.695   8.833   0.797 -0.0131  0.6466 -0.1386
    2CHTO   H93  718   2.732   8.756   0.864  0.1326  1.6469  0.9418
    2CHTO   O30  719   2.554   8.855   0.819  0.2558  0.1691 -0.1042
    2CHTO   C46  720   2.475   8.716   0.819  0.2424  0.6597  0.2298
    2CHTO   H88  721   2.530   8.641   0.876 -2.6089 -2.0149 -0.4295
    2CHTO   C53  722   2.332   8.740   0.882 -0.2080  0.4534 -0.0642
    2CHTO   O72  723   2.362   8.812   1.007  0.4383 -0.1318 -0.8192
    2CHTO  H199  724   2.332   8.901   1.006  1.8251  0.3950  1.0123
    2CHTO   O22  725   2.757   8.960   0.825  0.0854  0.2321  0.0453
    2CHTO   C31  726   2.792   9.008   0.966  0.1012 -0.1579 -0.2401
    2CHTO   H59  727   2.863   9.093   0.956 -0.8627  0.8924  1.7063
    2CHTO   C29  728   2.672   9.058   1.052 -0.3471 -0.6265  0.2270
    2CHTO   H57  729   2.603   8.972   1.055 -0.3498 -0.6007  1.1196
    2CHTO   O21  730   2.610   9.161   0.975 -0.6902  0.0766 -0.3566
    2CHTO   H37  731   2.519   9.170   0.996 -0.9639 -1.9442 -0.6516
    2CHTO   C27  732   2.705   9.104   1.201 -0.0013 -0.1464 -0.0044
    2CHTO   H55  733   2.767   9.195   1.198 -1.1512  0.7104  1.3657
    2CHTO    N5  734   2.587   9.140   1.285 -0.1842 -0.3847  0.6957
    2CHTO   H43  735   2.512   9.182   1.219  0.7406 -1.0346 -0.8128
    2CHTO   H44  736   2.568   9.064   1.359  2.4148  0.9881  2.8455
    2CHTO   C25  737   2.801   8.997   1.264 -0.4222  0.3986  0.6648
    2CHTO   H53  738   2.741   8.908   1.291 -1.1891  0.9214  0.7071
    2CHTO   O17  739   2.908   8.967   1.177  0.7471  1.2064 -0.0557
    2CHTO   C32  740   2.869   8.903   1.052  0.0746 -0.1563  0.8430
    2CHTO   H60  741   2.810   8.813   1.069  1.3801 -0.7579  2.2776
    2CHTO   C36  742   3.005   8.849   0.989  0.8294  0.7131  0.6045
    2CHTO   O25  743   3.066   8.769   1.086 -0.3826  0.1631 -0.3431
    2CHTO   H40  744   3.103   8.691   1.047  2.3809 -0.7952  3.8100
    2CHTO   O15  745   2.870   9.063   1.410 -0.2984 -0.3421 -0.0885
    2CHTO   C19  746   2.914   8.991   1.529  0.5306  0.2945  0.5008
    2CHTO   H47  747   2.875   8.890   1.508 -0.6723  0.5190  1.6057
    2CHTO   C20  748   3.069   8.959   1.547  0.0452  0.2650  0.6538
    2CHTO   H48  749   3.128   9.051   1.535 -0.2968  0.5151  0.8462
    2CHTO   O19  750   3.104   8.870   1.440  0.3168  0.1144  0.4940
    2CHTO   H35  751   3.157   8.916   1.379 -0.3137 -0.5048 -0.5266
    2CHTO   C21  752   3.097   8.894   1.690 -0.3915  0.1490  0.3090
    2CHTO   H49  753   3.068   8.789   1.685  1.2279 -0.2868 -0.1781
    2CHTO    N4  754   3.240   8.891   1.724  0.2273  0.4885 -0.0663
    2CHTO   H41  755   3.298   8.841   1.648 -0.6386  0.2235 -0.5485
    2CHTO   H42  756   3.270   8.994   1.736 -2.2070  1.2555 -0.2943
    2CHTO   C22  757   3.006   8.969   1.793  0.3010 -0.4074  0.0314
    2CHTO   H50  758   3.041   9.072   1.808 -0.7030 -0.4015  2.6899
    2CHTO   O14  759   2.869   8.953   1.750 -0.2703 -0.1737 -0.2126
    2CHTO   C23  760   2.832   9.042   1.646 -0.7682  0.0739 -0.5853
    2CHTO   H51  761   2.857   9.145   1.674 -1.7716  0.4002 -0.8578
    2CHTO   C34  762   2.682   9.022   1.624 -0.6409 -0.6227 -0.1049
    2CHTO   O23  763   2.606   9.043   1.738 -0.2731  0.9819  0.1161
    2CHTO   H38  764   2.527   9.091   1.719 -0.5430  0.1226 -0.9802
    2CHTO   O16  765   3.002   8.900   1.920  0.1112  0.2687 -0.2787
    2CHTO   C24  766   3.027   8.995   2.056  0.1073 -0.0528  0.6072
    2CHTO   H52  767   3.064   9.094   2.030 -1.3965  0.5688  0.8180
    2CHTO   C26  768   3.124   8.926   2.150 -0.1835 -0.3810  0.5935
    2CHTO   H54  769   3.079   8.830   2.181  0.6868 -0.2285  2.3864
    2CHTO   O20  770   3.247   8.910   2.074 -0.2953  0.1866  0.5080
    2CHTO   H36  771   3.228   8.835   2.021  2.0734 -2.4418  3.1347
    2CHTO   C30  772   3.138   9.007   2.283  0.2199 -1.3300  0.1031
    2CHTO   H58  773   3.181   9.097   2.237 -0.8234 -0.0321  1.6169
    2CHTO    N6  774   3.228   8.953   2.387  0.5588 -0.5020  0.2615
    2CHTO   H45  775   3.194   8.850   2.390  1.9039 -0.9894 -0.7874
    2CHTO   H46  776   3.330   8.958   2.354  0.3250  0.5410 -0.3252
    2CHTO   C33  777   2.994   9.038   2.344 -0.2946 -0.2505 -0.5519
    2CHTO   H61  778   2.946   8.941   2.366 -0.5065 -0.3462 -1.4096
    2CHTO   O18  779   2.917   9.099   2.241 -0.0092 -0.2724 -1.0914
    2CHTO   C28  780   2.889   9.023   2.125  0.0745  0.7562 -0.4586
    2CHTO   H56  781   2.845   8.927   2.152  1.0410  0.4670  0.1375
    2CHTO   C35  782   2.794   9.101   2.040  0.2505  0.4163  0.4211
    2CHTO   O24  783   2.836   9.238   2.016  0.1704  0.2370 -0.3118
    2CHTO   H39  784   2.783   9.281   1.951 -1.4319 -0.7960  0.2891
    2CHTO    O9  785   2.979   9.112   2.474 -0.5613  0.3287 -0.2974
    2CHTO   C13  786   2.830   9.080   2.558 -0.4393  0.1630 -0.1273
    2CHTO   H26  787   2.802   8.975   2.535 -1.3030  0.4371 -0.3188
    2CHTO   C11  788   2.720   9.185   2.505 -0.0447 -0.1782  0.5524
    2CHTO   H24  789   2.687   9.148   2.407 -0.5937 -1.1859  1.1182
    2CHTO    O8  790   2.791   9.312   2.482  0.2324  0.0944  0.3148
    2CHTO    H3  791   2.744   9.354   2.413 -1.5191 -1.7683  0.3064
    2CHTO    C9  792   2.589   9.196   2.596 -0.1033  0.6798 -0.2427
    2CHTO   H22  793   2.541   9.097   2.585  2.6065 -0.5009 -1.8044
    2CHTO    N2  794   2.493   9.301   2.546  0.1223  0.3167  0.3450
    2CHTO   H10  795   2.408   9.293   2.612 -0.3462  1.0938 -0.1607
    2CHTO   H11  796   2.535   9.400   2.535  0.5113  0.2327  1.0344
    2CHTO    C7  797   2.632   9.201   2.752  0.2366  1.3251 -0.3774
    2CHTO   H20  798   2.581   9.111   2.791 -0.5038  2.2796  0.8816
    2CHTO    O4  799   2.775   9.206   2.771  0.4344 -0.0169  0.1312
    2CHTO   C14  800   2.846   9.092   2.714 -0.2956  0.4203  0.7690
    2CHTO   H27  801   2.812   8.993   2.751 -0.4201 -1.0477 -3.0511
    2CHTO   C18  802   2.994   9.106   2.772  0.3275 -0.0156 -0.7830
    2CHTO   O13  803   3.086   8.995   2.750  0.0258  1.1247  0.1228
    2CHTO    H7  804   3.044   8.912   2.761  2.4235 -0.0940  0.3792
    2CHTO    O2  805   2.564   9.313   2.839  0.2726 -0.0060 -0.1442
    2CHTO    C1  806   2.569   9.287   2.983 -0.0929 -0.3666  0.2663
    2CHTO   H14  807   2.668   9.238   2.996 -1.5396 -2.7712  2.6901
    2CHTO    C2  808   2.467   9.185   3.037 -0.7587 -0.7137  0.6650
    2CHTO   H15  809   2.376   9.219   2.987 -0.3523  1.5620  1.3873
    2CHTO    O6  810   2.480   9.052   2.998 -0.3984  0.4870 -0.6954
    2CHTO    H1  811   2.571   9.031   2.997 -0.8155 -1.5942  1.0512
    2CHTO    C3  812   2.458   9.191   3.201 -0.2221  0.0111  0.1196
    2CHTO   H16  813   2.548   9.144   3.241 -1.6959 -2.0206  1.1093
    2CHTO    N1  814   2.340   9.105   3.245 -0.4448  0.3860 -0.2893
    2CHTO    H8  815   2.346   9.031   3.323  0.7095  0.3782 -0.3833
    2CHTO    H9  816   2.324   9.044   3.158 -0.6598  0.3891 -0.2535
    2CHTO    C4  817   2.456   9.339   3.256  0.0247  0.1858  0.7148
    2CHTO   H17  818   2.367   9.390   3.222  0.7195  0.0398 -1.3629
    2CHTO    O1  819   2.575   9.395   3.207 -0.0239 -0.0443 -0.4292
    2CHTO    C5  820   2.573   9.424   3.064 -0.5813 -0.2658  0.3258
    2CHTO   H18  821   2.480   9.474   3.034 -1.4310 -1.6060  0.6848
    2CHTO   C16  822   2.694   9.520   3.031  0.3661 -0.1302  0.4148
    2CHTO   O11  823   2.683   9.601   2.913 -0.5647 -0.5170  0.0622
    2CHTO    H5  824   2.598   9.642   2.922 -0.1355  0.0735  1.7841
    2CHTO    O3  825   2.455   9.341   3.397  0.5647  0.8087  0.1725
    2CHTO    C6  826   2.398   9.468   3.451  0.2070  0.2437 -0.2165
    2CHTO   H19  827   2.392   9.548   3.377 -0.8499  1.3014  0.9943
    2CHTO    C8  828   2.265   9.431   3.526 -0.1683 -0.5891 -0.1545
    2CHTO   H21  829   2.287   9.354   3.600  0.1318  2.5098  3.1373
    2CHTO    O7  830   2.165   9.379   3.431 -0.4314  0.2526 -0.0587
    2CHTO    H2  831   2.106   9.443   3.397  0.1260  0.1699 -1.1876
    2CHTO   C12  832   2.202   9.559   3.602  0.4494 -0.2531 -0.0244
    2CHTO   H25  833   2.159   9.629   3.528  2.8464  1.8314  0.4932
    2CHTO    N3  834   2.090   9.515   3.690 -0.0169 -0.7018  0.1338
    2CHTO   H12  835   2.108   9.424   3.744  0.3880 -0.1215  0.9826
    2CHTO   H13  836   2.006   9.494   3.625  0.6220 -1.0385 -0.5916
    2CHTO   C15  837   2.317   9.637   3.678 -0.5752 -0.0887  1.0524
    2CHTO   H28  838   2.322   9.613   3.785 -1.0402 -0.0676  1.0827
    2CHTO   O10  839   2.288   9.797   3.675 -0.3235 -0.5294  0.1783
    2CHTO    H4  840   2.316   9.838   3.754 -1.2020 -1.2265  0.8605
    2CHTO    O5  841   2.446   9.643   3.618  0.2683  0.6954  0.5284
    2CHTO   C10  842   2.495   9.519   3.566  0.0407  0.8809 -0.7698
    2CHTO   H23  843   2.509   9.444   3.644 -0.7631  1.6871  0.1399
    2CHTO   C17  844   2.638   9.543   3.511 -0.1056 -0.2115 -0.3474
    2CHTO   O12  845   2.709   9.421   3.500  0.1655 -0.1890 -0.0719
    2CHTO    H6  846   2.798   9.447   3.481 -0.2872  2.5659  1.3362
    3CHTO  H203  847   7.456   3.278   0.264 -2.1609 -1.2742  0.2821
    3CHTO   O82  848   7.453   3.253   0.173 -0.2806  0.0081 -0.1604
    3CHTO  C123  849   7.495   3.117   0.161  0.5984 -0.3199  0.2405
    3CHTO  H227  850   7.517   3.090   0.265  0.4343 -1.3071  0.0332
    3CHTO   O77  851   7.381   3.056   0.110  0.4787  0.5308  0.1252
    3CHTO  C118  852   7.380   2.914   0.117 -0.4343 -0.1953  0.4266
    3CHTO  H222  853   7.404   2.879   0.218 -0.0362 -2.8129 -0.5557
    3CHTO  C125  854   7.242   2.867   0.066 -0.2093  0.0064  0.4967
    3CHTO   O84  855   7.137   2.922   0.145  0.4093  0.0841  0.8729
    3CHTO  H205  856   7.107   2.865   0.213  0.7744  0.5961  1.4629
    3CHTO  C114  857   7.490   2.869   0.012 -0.3630  0.3186 -0.4423
    3CHTO  H218  858   7.461   2.906  -0.087  0.7764 -0.1901 -0.9774
    3CHTO  C116  859   7.629   2.933   0.045 -0.0124 -0.7276 -0.3692
    3CHTO  H220  860   7.677   2.892   0.136  0.4304  1.4859  0.4300
    3CHTO   O79  861   7.706   2.890  -0.067  0.0124 -0.4307 -0.0570
    3CHTO  H201  862   7.726   2.798  -0.058  1.4301 -0.0890  0.4661
    3CHTO  C120  863   7.613   3.091   0.060  0.1653  0.5337  0.5945
    3CHTO  H224  864   7.589   3.130  -0.041 -2.7885  0.3683  1.1860
    3CHTO   N21  865   7.740   3.158   0.105  0.5204  0.4755 -0.0848
    3CHTO  H211  866   7.741   3.259   0.066  0.0783 -0.4161 -2.4751
    3CHTO  H212  867   7.821   3.113   0.051  2.0567  2.2461  0.7052
    3CHTO   O75  868   7.489   2.728   0.019  0.1940  0.4303  0.1151
    3CHTO  C112  869   7.472   2.654  -0.151 -0.2363 -0.0867  0.1805
    3CHTO  H216  870   7.562   2.668  -0.213 -1.5558  0.1912 -1.7412
    3CHTO   O73  871   7.360   2.717  -0.209 -0.5496  0.4588 -0.0330
    3CHTO  C113  872   7.345   2.677  -0.350  0.7354  0.3271 -0.1862
    3CHTO  H217  873   7.434   2.670  -0.417  1.9217 -1.1908  1.4911
    3CHTO  C124  874   7.238   2.773  -0.413  0.5074  0.2144 -0.4806
    3CHTO   O83  875   7.111   2.787  -0.350 -0.2929  0.8155  0.4657
    3CHTO  H204  876   7.051   2.819  -0.414  0.3896 -0.9267 -1.0966
    3CHTO  C109  877   7.293   2.528  -0.345 -0.0369  0.2162 -0.4827
    3CHTO  H213  878   7.192   2.531  -0.300 -0.6898  1.4258 -1.9877
    3CHTO  C110  879   7.404   2.442  -0.271  0.6539  0.1696  0.0265
    3CHTO  H214  880   7.488   2.430  -0.341  1.5700  1.3798  0.8928
    3CHTO   O78  881   7.345   2.315  -0.250 -0.7459 -0.2306  0.1999
    3CHTO  H200  882   7.403   2.263  -0.198 -0.4423 -2.9312 -2.7088
    3CHTO  C111  883   7.452   2.504  -0.136 -0.6070  0.2495 -0.5481
    3CHTO  H215  884   7.375   2.486  -0.060  0.3707  1.5720  0.7664
    3CHTO   N19  885   7.578   2.443  -0.078 -0.0597 -0.6344  0.5232
    3CHTO  H207  886   7.669   2.450  -0.136  1.6255 -2.3613  2.8652
    3CHTO  H208  887   7.561   2.340  -0.050 -1.1842 -1.2173 -2.0835
    3CHTO   O74  888   7.275   2.473  -0.480 -0.0571  0.9844 -0.0509
    3CHTO  C115  889   7.101   2.447  -0.506  0.4720  0.0685 -1.0680
    3CHTO  H219  890   7.052   2.414  -0.414  1.8026  0.3018 -0.2513
    3CHTO   O76  891   7.029   2.571  -0.542 -0.2061 -0.3419 -0.2683
    3CHTO  C122  892   6.893   2.565  -0.579 -0.0067 -0.3143  0.0399
    3CHTO  H226  893   6.875   2.657  -0.634 -0.3716 -1.2410 -1.4095
    3CHTO  C126  894   6.806   2.577  -0.450  0.3837  0.6422  0.3263
    3CHTO   O85  895   6.809   2.712  -0.389  0.0433 -0.0131  0.1132
    3CHTO  H206  896   6.723   2.749  -0.382  1.2925  3.0363 -0.0353
    3CHTO  C121  897   6.854   2.442  -0.667 -0.5384  0.0706 -0.4279
    3CHTO  H225  898   6.744   2.430  -0.668 -0.5480  0.1738 -0.5984
    3CHTO   O81  899   6.873   2.464  -0.809 -0.1963  0.2117 -0.5474
    3CHTO  H202  900   6.962   2.463  -0.837 -0.0301 -1.4346 -0.0271
    3CHTO  C119  901   6.923   2.305  -0.619 -0.1757 -0.3879  0.4749
    3CHTO  H223  902   6.877   2.296  -0.521 -4.5669  0.7900 -1.3590
    3CHTO  C117  903   7.080   2.321  -0.602  0.0865  0.6687  0.7872
    3CHTO  H221  904   7.137   2.351  -0.689  0.5257  0.7994  1.1166
    3CHTO   N20  905   7.147   2.193  -0.544  0.1938 -0.0843 -0.7724
    3CHTO  H209  906   7.094   2.099  -0.549  1.3195 -0.9832  2.7620
    3CHTO  H210  907   7.252   2.194  -0.568  0.5248 -0.4387  0.5927
    3CHTO   O80  908   6.873   2.155  -0.697 -0.5396 -0.1040 -0.0497
    3CHTO  C103  909   6.766   2.063  -0.620 -0.3489  0.0226  0.5282
    3CHTO  H190  910   6.786   2.038  -0.515 -2.0079 -3.7663  0.0350
    3CHTO  C101  911   6.610   2.116  -0.618  0.5484  0.8634 -0.3186
    3CHTO  H188  912   6.593   2.155  -0.719  2.1319 -3.3325 -2.3139
    3CHTO   O68  913   6.601   2.223  -0.515  0.0431 -0.3244 -0.4069
    3CHTO  H168  914   6.592   2.308  -0.554 -0.8206 -0.9770 -1.6384
    3CHTO   C99  915   6.513   2.000  -0.581 -0.1376 -0.3061 -0.2780
    3CHTO  H186  916   6.539   1.974  -0.476 -1.3057  2.8443  0.8548
    3CHTO   N17  917   6.371   2.046  -0.590  0.1997 -0.1890  0.4506
    3CHTO  H174  918   6.297   1.970  -0.573  0.7080 -0.9398 -0.6401
    3CHTO  H175  919   6.344   2.144  -0.553 -1.4440  0.3290 -2.0202
    3CHTO   C97  920   6.539   1.874  -0.669  0.7650 -0.7404 -0.0777
    3CHTO  H184  921   6.511   1.882  -0.775 -0.6740  0.9015  0.3957
    3CHTO   O64  922   6.675   1.834  -0.649  0.6176 -0.1749 -0.0480
    3CHTO  C104  923   6.772   1.928  -0.700 -1.1521 -0.1785 -0.5238
    3CHTO  H191  924   6.758   1.951  -0.806 -1.1259 -1.3818 -0.7961
    3CHTO  C108  925   6.912   1.862  -0.683  0.9528 -0.0472  0.9091
    3CHTO   O71  926   6.931   1.745  -0.758 -0.4323  0.4101  0.3561
    3CHTO  H171  927   6.986   1.752  -0.834  1.6710  0.9491  1.8711
    3CHTO   O62  928   6.473   1.756  -0.627 -0.0908 -0.3355 -0.3225
    3CHTO   C91  929   6.455   1.648  -0.714  0.4033  0.4324  0.2135
    3CHTO  H178  930   6.510   1.684  -0.801 -0.6092  1.2633 -0.0820
    3CHTO   C92  931   6.301   1.645  -0.756 -0.1479 -0.7808  0.1978
    3CHTO  H179  932   6.238   1.633  -0.667  0.1772 -2.5781  0.2054
    3CHTO   O66  933   6.265   1.780  -0.803  0.4560  0.5372 -0.1792
    3CHTO  H166  934   6.286   1.848  -0.741 -1.9440  1.7956 -0.6958
    3CHTO   C93  935   6.263   1.540  -0.867  0.2909  0.4568  0.8225
    3CHTO  H180  936   6.287   1.576  -0.968  1.6480 -2.3685  0.1068
    3CHTO   N16  937   6.115   1.516  -0.883 -0.4174 -0.4895 -0.3436
    3CHTO  H172  938   6.088   1.430  -0.944 -1.7711  0.1435 -0.6645
    3CHTO  H173  939   6.060   1.519  -0.790 -0.4561 -0.8661 -0.3546
    3CHTO   C94  940   6.330   1.402  -0.842 -0.3821 -0.3647  0.5061
    3CHTO  H181  941   6.270   1.340  -0.774 -1.9690 -1.3141 -1.7025
    3CHTO   O61  942   6.461   1.412  -0.782  0.5564 -0.3754 -0.0020
    3CHTO   C95  943   6.485   1.505  -0.673 -0.1818  0.6086 -0.2789
    3CHTO  H182  944   6.416   1.482  -0.592  0.5625 -2.0350 -0.3498
    3CHTO  C106  945   6.632   1.481  -0.628 -0.3879 -0.1347 -0.6071
    3CHTO   O69  946   6.652   1.563  -0.509  0.4505  0.4069 -0.1561
    3CHTO  H169  947   6.740   1.562  -0.478  0.0183 -0.0109  1.0783
    3CHTO   O63  948   6.355   1.323  -0.969  0.2425 -0.7667  0.8826
    3CHTO   C96  949   6.271   1.158  -0.969 -0.0473 -0.3954  0.1322
    3CHTO  H183  950   6.329   1.097  -1.039 -0.1311 -1.4668  0.9770
    3CHTO   C98  951   6.120   1.141  -1.012  0.4484  0.1151 -0.0245
    3CHTO  H185  952   6.064   1.218  -0.957 -0.0092  0.1310 -0.5048
    3CHTO   O67  953   6.116   1.173  -1.154  0.3058  0.3387  0.5429
    3CHTO  H167  954   6.143   1.263  -1.161  4.3618 -0.8523 -0.8286
    3CHTO  C102  955   6.068   0.992  -0.991 -1.0464  0.2029 -0.4482
    3CHTO  H189  956   6.122   0.937  -1.070  2.3826 -0.9400  2.5668
    3CHTO   N18  957   5.920   0.965  -1.009 -1.0899  0.7555  0.6343
    3CHTO  H176  958   5.893   0.970  -1.114  1.7871  0.5397 -0.1635
    3CHTO  H177  959   5.872   1.048  -0.959  0.4430  0.4364  2.6987
    3CHTO  C105  960   6.104   0.933  -0.857  0.0564 -0.2836  0.6661
    3CHTO  H192  961   6.041   0.973  -0.778  1.1716 -0.8335  1.8519
    3CHTO   O65  962   6.240   0.961  -0.825  0.0895 -0.8005  0.4255
    3CHTO  C100  963   6.286   1.096  -0.818  0.3145 -0.2995 -0.2788
    3CHTO  H187  964   6.217   1.153  -0.755 -1.1666  1.0632 -3.0612
    3CHTO  C107  965   6.436   1.092  -0.775 -0.1048  0.4308 -0.7312
    3CHTO   O70  966   6.458   1.096  -0.632  0.1024  0.1269 -0.5697
    3CHTO  H170  967   6.524   1.037  -0.603  1.3503  1.8821  0.2367
    3CHTO   O57  968   6.084   0.752  -0.872 -0.1528 -0.1313 -0.1244
    3CHTO   C85  969   6.069   0.666  -0.753 -0.1652 -0.5057 -0.1243
    3CHTO  H157  970   6.088   0.569  -0.803 -0.7615 -1.7948  2.0508
    3CHTO   C83  971   5.924   0.660  -0.691 -0.8367  0.5428 -0.0786
    3CHTO  H155  972   5.857   0.615  -0.764 -0.6020 -2.9358  1.7473
    3CHTO   O56  973   5.883   0.791  -0.669  0.2896  0.7780 -0.0870
    3CHTO  H135  974   5.915   0.822  -0.587  0.3946  2.9794 -0.9154
    3CHTO   C81  975   5.910   0.561  -0.565  0.5754  0.7566 -0.3770
    3CHTO  H153  976   5.942   0.461  -0.592 -0.9338  0.0715  0.3538
    3CHTO   N14  977   5.768   0.531  -0.519 -0.4062  0.1480  0.0406
    3CHTO  H141  978   5.757   0.569  -0.419 -0.8147 -1.5022  0.6336
    3CHTO  H142  979   5.740   0.428  -0.511 -2.0836  0.7574  2.7724
    3CHTO   C79  980   6.008   0.609  -0.464 -0.1398 -0.3503  0.4087
    3CHTO  H151  981   6.009   0.532  -0.386 -0.1958 -0.0182  0.7376
    3CHTO   O52  982   6.141   0.604  -0.521 -0.1071  0.2668 -0.0645
    3CHTO   C86  983   6.166   0.689  -0.637  0.2899  0.0268 -1.2120
    3CHTO  H158  984   6.157   0.795  -0.602  0.8854 -0.4242  0.3432
    3CHTO   C90  985   6.316   0.677  -0.678  0.1383  0.5488  0.3563
    3CHTO   O60  986   6.393   0.747  -0.575 -0.4587 -0.3027 -0.1783
    3CHTO  H138  987   6.347   0.828  -0.562 -0.1756  0.0544 -1.3016
    3CHTO   O50  988   5.969   0.729  -0.400 -0.4250 -0.5247 -0.1088
    3CHTO   C73  989   5.990   0.816  -0.288  0.5561  0.5492 -1.0880
    3CHTO  H145  990   6.089   0.802  -0.242 -0.7129 -0.3076  1.4644
    3CHTO   C74  991   5.877   0.794  -0.183 -0.4827  0.1743  0.3771
    3CHTO  H146  992   5.879   0.691  -0.143  0.1444  0.2778  0.6076
    3CHTO   O54  993   5.907   0.887  -0.077  0.4408 -0.2373 -0.6732
    3CHTO  H133  994   5.847   0.862  -0.009  0.0467 -1.2713 -1.4008
    3CHTO   C75  995   5.738   0.829  -0.251 -0.9618  0.1135 -0.7903
    3CHTO  H147  996   5.723   0.772  -0.344  0.9141 -1.5397 -0.1135
    3CHTO   N13  997   5.614   0.802  -0.173  0.0383  0.0265  0.2144
    3CHTO  H139  998   5.532   0.769  -0.234  0.3060  2.1860 -1.4011
    3CHTO  H140  999   5.638   0.728  -0.099 -1.5545 -0.7684 -0.0626
    3CHTO   C76 1000   5.732   0.982  -0.301  0.2346  0.4674  0.5199
    3CHTO  H148 1001   5.746   1.048  -0.216  1.7744  1.9700 -0.8510
    3CHTO   O49 1002   5.852   1.000  -0.393  0.1853 -0.0647 -0.0322
    3CHTO   C77 1003   5.981   0.962  -0.337  0.1173  0.4053 -0.0930
    3CHTO  H149 1004   5.998   1.029  -0.252  1.4943  1.5926 -1.2890
    3CHTO   C88 1005   6.097   0.991  -0.437 -0.1815 -0.2153  0.4142
    3CHTO   O58 1006   6.101   1.133  -0.460  0.1819  0.2160 -0.0348
    3CHTO  H136 1007   6.102   1.157  -0.551 -0.3147  0.5796  0.0531
    3CHTO   O51 1008   5.611   1.013  -0.403 -0.4346 -0.0152  0.5123
    3CHTO   C78 1009   5.596   1.156  -0.439  0.1639  0.2345 -0.3968
    3CHTO  H150 1010   5.686   1.200  -0.392 -0.1640 -1.9848  2.4987
    3CHTO   C80 1011   5.471   1.207  -0.362  0.1506 -0.1870 -0.2379
    3CHTO  H152 1012   5.383   1.147  -0.392 -0.6186  1.6659 -1.6910
    3CHTO   O55 1013   5.487   1.181  -0.223  0.3127 -0.5076  0.5343
    3CHTO  H134 1014   5.411   1.184  -0.169  0.1506 -3.5681  0.5216
    3CHTO   C84 1015   5.451   1.364  -0.381 -0.1631  0.6414 -0.3036
    3CHTO  H156 1016   5.535   1.410  -0.329 -1.1016  2.7184 -0.5418
    3CHTO   N15 1017   5.328   1.417  -0.314 -0.2398 -0.1929  0.3747
    3CHTO  H143 1018   5.346   1.503  -0.253 -0.5429  1.1975 -1.4471
    3CHTO  H144 1019   5.243   1.437  -0.376 -1.4015  2.0091  2.6114
    3CHTO   C87 1020   5.454   1.405  -0.525 -0.4531  0.0021 -0.0244
    3CHTO  H159 1021   5.364   1.379  -0.579 -0.1715  0.2576 -0.6222
    3CHTO   O53 1022   5.595   1.332  -0.598  0.1208 -0.5158 -0.6399
    3CHTO   C82 1023   5.595   1.189  -0.587  0.3323  0.3179  0.4989
    3CHTO  H154 1024   5.504   1.150  -0.634  0.2564  1.0465  0.0301
    3CHTO   C89 1025   5.721   1.123  -0.650 -1.0536  0.1425 -0.3414
    3CHTO   O59 1026   5.747   1.167  -0.783  0.4896  0.0221  0.9099
    3CHTO  H137 1027   5.753   1.260  -0.781 -2.3566  0.2710  0.1377
    3CHTO   O45 1028   5.501   1.580  -0.530  0.0796 -0.0694  0.7279
    3CHTO   C67 1029   5.641   1.609  -0.515 -0.9167 -0.5203 -0.1502
    3CHTO  H124 1030   5.703   1.528  -0.477 -1.4960 -0.5441  0.7467
    3CHTO   C65 1031   5.706   1.663  -0.650  0.5279 -0.5984  0.0223
    3CHTO  H122 1032   5.626   1.719  -0.698  2.5957  0.6587 -2.1163
    3CHTO   O44 1033   5.725   1.545  -0.724 -0.2137 -0.2498 -0.1176
    3CHTO  H102 1034   5.776   1.559  -0.802 -1.8605  1.9147 -0.8575
    3CHTO   C63 1035   5.817   1.770  -0.624 -0.2918  0.0386 -0.1486
    3CHTO  H120 1036   5.773   1.869  -0.617  0.1142  0.2020  0.1421
    3CHTO   N11 1037   5.913   1.799  -0.740  0.1048  0.1198 -0.2777
    3CHTO  H108 1038   6.012   1.774  -0.710 -0.1372 -0.7049 -0.1483
    3CHTO  H109 1039   5.908   1.900  -0.776 -0.3435 -0.6547 -2.5028
    3CHTO   C61 1040   5.884   1.736  -0.480  0.3454 -0.3986 -0.0873
    3CHTO  H118 1041   5.963   1.810  -0.461  1.1653 -0.8371 -1.7159
    3CHTO   O40 1042   5.789   1.743  -0.375 -0.1680  0.0927 -0.2926
    3CHTO   C68 1043   5.651   1.725  -0.405  0.6145 -0.0688 -0.4277
    3CHTO  H125 1044   5.618   1.818  -0.456 -1.9051 -0.5564  0.2257
    3CHTO   C72 1045   5.561   1.713  -0.271  0.0482 -0.0121  0.1239
    3CHTO   O48 1046   5.571   1.822  -0.186  0.1409  0.2135 -0.1161
    3CHTO  H105 1047   5.512   1.890  -0.211  2.2358  3.0383  2.2543
    3CHTO   O38 1048   5.943   1.597  -0.483  0.0437  0.0632 -0.0020
    3CHTO   C55 1049   6.015   1.568  -0.362 -0.7024  0.2923 -0.2009
    3CHTO  H112 1050   5.973   1.627  -0.278 -2.7155  1.1144 -1.7260
    3CHTO   C56 1051   6.168   1.603  -0.390 -0.4269 -1.1956  0.1266
    3CHTO  H113 1052   6.176   1.568  -0.493 -4.8516  0.8544 -1.0368
    3CHTO   O42 1053   6.187   1.748  -0.403  0.4208 -0.0382  0.7613
    3CHTO  H100 1054   6.130   1.777  -0.472  0.0837 -0.1345  0.9953
    3CHTO   C57 1055   6.270   1.550  -0.279 -0.3243  0.0769  0.2919
    3CHTO  H114 1056   6.242   1.605  -0.190 -2.0324 -1.5518  0.7983
    3CHTO   N10 1057   6.411   1.575  -0.300 -0.0983 -0.1429  0.0771
    3CHTO  H106 1058   6.439   1.674  -0.331  0.7996 -0.6365 -0.7354
    3CHTO  H107 1059   6.442   1.504  -0.376 -1.8679 -1.0429  0.1652
    3CHTO   C58 1060   6.234   1.393  -0.259  0.5448 -0.4085  0.1806
    3CHTO  H115 1061   6.245   1.342  -0.357  2.4972  1.0858 -0.4254
    3CHTO   O37 1062   6.095   1.388  -0.226 -0.4643  0.4167 -0.0355
    3CHTO   C59 1063   5.995   1.423  -0.323  0.7006 -0.1212 -0.4517
    3CHTO  H116 1064   6.017   1.361  -0.410 -0.9541 -1.3219 -0.0273
    3CHTO   C70 1065   5.853   1.379  -0.273  0.2706 -0.5021  0.2707
    3CHTO   O46 1066   5.843   1.257  -0.205 -0.0820  0.0696 -0.6666
    3CHTO  H103 1067   5.752   1.241  -0.189 -0.5651  1.4197 -1.9468
    3CHTO   O39 1068   6.315   1.323  -0.151  0.0411  0.1230 -0.4382
    3CHTO   C60 1069   6.349   1.187  -0.185  0.0997  0.2522  0.5311
    3CHTO  H117 1070   6.280   1.154  -0.262 -0.9119 -1.0307  1.9547
    3CHTO   C62 1071   6.487   1.173  -0.242 -0.8709  0.0599  1.1049
    3CHTO  H119 1072   6.486   1.240  -0.331  0.5528 -2.3214 -0.7689
    3CHTO   O43 1073   6.585   1.232  -0.147  0.1026  0.0594  0.1552
    3CHTO  H101 1074   6.543   1.274  -0.075  0.5796  0.3796  0.2485
    3CHTO   C66 1075   6.506   1.024  -0.303 -0.7521 -0.3757  0.0906
    3CHTO  H123 1076   6.426   1.015  -0.376  0.5982  2.7174 -1.8489
    3CHTO   N12 1077   6.638   1.001  -0.378  0.7383 -0.1118  0.6636
    3CHTO  H110 1078   6.640   0.909  -0.435  0.3073 -0.6860  1.5574
    3CHTO  H111 1079   6.723   1.001  -0.312  2.8292  3.1164 -1.8214
    3CHTO   C69 1080   6.483   0.924  -0.188  0.0197 -0.4403  0.2800
    3CHTO  H126 1081   6.579   0.924  -0.132  0.1471 -1.4169  0.0804
    3CHTO   O41 1082   6.373   0.950  -0.107 -0.0222  0.0547  0.7193
    3CHTO   C64 1083   6.333   1.092  -0.063 -0.0733 -0.2465 -0.5983
    3CHTO  H121 1084   6.403   1.124   0.017 -0.3644 -4.6503  1.5364
    3CHTO   C71 1085   6.192   1.097  -0.012 -0.2252 -0.0324 -0.6865
    3CHTO   O47 1086   6.195   1.016   0.109 -0.3095  0.0802  0.0140
    3CHTO  H104 1087   6.208   1.080   0.175 -1.7170 -0.2099  0.5708
    3CHTO   O34 1088   6.465   0.781  -0.264  0.4638 -0.1577  0.5818
    3CHTO   C49 1089   6.472   0.626  -0.250  0.7107 -0.3179 -0.6546
    3CHTO   H91 1090   6.519   0.583  -0.339  0.3481 -1.7345 -0.1845
    3CHTO   C47 1091   6.330   0.582  -0.247  0.2028  0.5703  0.1389
    3CHTO   H89 1092   6.295   0.604  -0.350  0.8375  0.8292 -0.0272
    3CHTO   O33 1093   6.250   0.661  -0.153  0.2907  0.7571  0.3850
    3CHTO   H70 1094   6.157   0.657  -0.169  0.3927 -0.0396 -0.0259
    3CHTO   C45 1095   6.314   0.430  -0.200  0.0936 -0.4164 -0.2941
    3CHTO   H87 1096   6.282   0.425  -0.095  1.6246 -1.3484  0.1607
    3CHTO    N8 1097   6.217   0.350  -0.279  0.4949 -0.2460  0.1496
    3CHTO   H75 1098   6.271   0.269  -0.325  0.8288  0.5565 -0.8960
    3CHTO   H76 1099   6.155   0.294  -0.210  1.2182  1.2833  2.1212
    3CHTO   C43 1100   6.453   0.356  -0.189 -0.5259  0.5993 -0.4182
    3CHTO   H85 1101   6.431   0.256  -0.151 -0.7572  1.0902  0.7739
    3CHTO   O29 1102   6.546   0.425  -0.100  0.6114  0.2549  0.3275
    3CHTO   C50 1103   6.558   0.567  -0.129 -0.4754  0.1551  0.6390
    3CHTO   H92 1104   6.513   0.627  -0.048 -1.4337 -0.1598  0.3478
    3CHTO   C54 1105   6.707   0.611  -0.131  0.2898  0.0228 -0.2848
    3CHTO   O36 1106   6.780   0.600  -0.009 -0.0512  0.5939 -0.0604
    3CHTO   H72 1107   6.752   0.653   0.063  1.4989 -0.1488  1.1231
    3CHTO   O27 1108   6.514   0.339  -0.316 -0.1999 -0.0663  0.7421
    3CHTO   C37 1109   6.558   0.308  -0.449  0.6853  0.9493  1.1758
    3CHTO   H79 1110   6.589   0.202  -0.446  0.7128  0.8780 -0.9319
    3CHTO   C38 1111   6.453   0.304  -0.565  0.3430 -0.7923  0.1814
    3CHTO   H80 1112   6.400   0.400  -0.561  1.7134 -0.0289  0.2993
    3CHTO   O31 1113   6.365   0.192  -0.543 -0.1167  0.1382 -0.6625
    3CHTO   H68 1114   6.327   0.186  -0.457  1.0036 -1.2886 -0.2342
    3CHTO   C39 1115   6.499   0.298  -0.717 -0.4226 -0.4386 -0.4027
    3CHTO   H81 1116   6.552   0.204  -0.724 -0.0874 -0.2213 -0.7972
    3CHTO    N7 1117   6.385   0.304  -0.823 -0.2976 -0.2429 -0.7552
    3CHTO   H73 1118   6.336   0.400  -0.810  1.4604  0.5820 -0.0157
    3CHTO   H74 1119   6.419   0.289  -0.925  0.7589  0.4482 -0.5040
    3CHTO   C40 1120   6.612   0.397  -0.733  0.6093 -0.4838 -0.0683
    3CHTO   H82 1121   6.572   0.497  -0.713  1.5925  0.8273 -4.1636
    3CHTO   O26 1122   6.716   0.361  -0.639 -0.0847 -0.0305 -0.2559
    3CHTO   C41 1123   6.675   0.392  -0.498  0.2569 -0.9101  0.5855
    3CHTO   H83 1124   6.643   0.497  -0.494  0.5698 -0.7456 -0.8834
    3CHTO   C52 1125   6.793   0.376  -0.402 -0.8702 -0.4249 -0.4516
    3CHTO   O35 1126   6.918   0.465  -0.433  0.1409  0.2107  0.3052
    3CHTO   H71 1127   6.946   0.454  -0.522  2.3866 -0.1612  1.0553
    3CHTO   O28 1128   6.672   0.395  -0.862  0.1809 -0.5116 -0.6892
    3CHTO   C42 1129   6.747   0.515  -0.906 -0.7644 -0.2836  0.2416
    3CHTO   H84 1130   6.763   0.491  -1.012 -2.7367  1.4015 -0.4765
    3CHTO   C44 1131   6.885   0.536  -0.841 -0.0953 -0.0089 -0.6161
    3CHTO   H86 1132   6.874   0.542  -0.733  1.9260  1.5926 -0.4844
    3CHTO   O32 1133   6.955   0.413  -0.875  0.2052 -0.6594 -0.4557
    3CHTO   H69 1134   6.988   0.404  -0.962  0.9181  0.9249 -0.3631
    3CHTO   C48 1135   6.963   0.667  -0.893 -0.2579  0.4469 -0.3064
    3CHTO   H90 1136   7.000   0.647  -0.993  1.3472 -0.6872  0.4851
    3CHTO    N9 1137   7.096   0.684  -0.824  0.8442  0.0252  0.0439
    3CHTO   H77 1138   7.139   0.593  -0.783 -1.9410 -1.2774  0.1844
    3CHTO   H78 1139   7.072   0.754  -0.746  0.7027  0.7629 -0.6592
    3CHTO   C51 1140   6.868   0.788  -0.878 -0.2292  0.0628 -0.2500
    3CHTO   H93 1141   6.846   0.800  -0.772 -0.4129  1.2367 -0.4122
    3CHTO   O30 1142   6.753   0.761  -0.953 -0.0102 -0.4868  0.7116
    3CHTO   C46 1143   6.667   0.647  -0.911  0.4496  0.4079  0.1838
    3CHTO   H88 1144   6.640   0.674  -0.809  1.7323  1.8941  0.1630
    3CHTO   C53 1145   6.553   0.641  -1.008 -0.2215  0.4146  0.2301
    3CHTO   O72 1146   6.469   0.755  -0.991 -0.4365  0.0270 -0.3593
    3CHTO  H199 1147   6.415   0.765  -1.067 -0.1809  0.7927 -0.4377
    3CHTO   O22 1148   6.929   0.914  -0.921  0.5756 -0.4546 -0.1216
    3CHTO   C31 1149   6.867   1.043  -0.903 -0.5466 -0.2462 -0.6464
    3CHTO   H59 1150   6.762   1.027  -0.871 -0.8811  1.3694 -0.8682
    3CHTO   C29 1151   6.935   1.127  -0.794 -0.3345  0.3024 -0.4230
    3CHTO   H57 1152   7.043   1.108  -0.784 -0.1365  1.6221  0.0922
    3CHTO   O21 1153   6.871   1.085  -0.672  0.7743  0.2012  0.5763
    3CHTO   H37 1154   6.779   1.102  -0.679  0.9795  0.4227 -1.6389
    3CHTO   C27 1155   6.912   1.281  -0.798  0.1349 -0.0922 -0.0114
    3CHTO   H55 1156   6.816   1.304  -0.751 -1.1229 -3.3004 -0.9226
    3CHTO    N5 1157   7.018   1.366  -0.733  0.9230  0.6428  0.2369
    3CHTO   H43 1158   7.022   1.461  -0.784 -0.4429 -0.3217 -1.7548
    3CHTO   H44 1159   7.014   1.372  -0.625  0.7240  0.7777  0.2228
    3CHTO   C25 1160   6.906   1.327  -0.955  0.8467 -0.2006 -0.1375
    3CHTO   H53 1161   7.006   1.313  -0.998  0.4504  0.8561 -1.4124
    3CHTO   O17 1162   6.810   1.249  -1.029  0.0511 -0.3429 -0.3110
    3CHTO   C32 1163   6.852   1.113  -1.045  0.0144  0.2819  0.3406
    3CHTO   H60 1164   6.950   1.118  -1.094 -0.2478  1.3085 -0.0783
    3CHTO   C36 1165   6.751   1.047  -1.144 -0.2277  0.4154  0.0009
    3CHTO   O25 1166   6.615   1.041  -1.100 -0.0045  0.5026 -0.6309
    3CHTO   H40 1167   6.574   1.111  -1.148 -1.6763 -0.3594 -0.4678
    3CHTO   O15 1168   6.864   1.465  -0.974 -0.1089  0.6846 -0.4138
    3CHTO   C19 1169   6.813   1.533  -1.090 -0.5065 -0.3861  1.1953
    3CHTO   H47 1170   6.792   1.447  -1.156  1.2407 -1.5672  2.1463
    3CHTO   C20 1171   6.690   1.626  -1.062 -0.6953  0.0770  0.3032
    3CHTO   H48 1172   6.720   1.711  -0.997 -1.5094 -0.5854  1.5691
    3CHTO   O19 1173   6.586   1.546  -1.002  0.6198 -1.3351  0.4323
    3CHTO   H35 1174   6.539   1.595  -0.938  0.2278  0.2273 -1.0045
    3CHTO   C21 1175   6.633   1.686  -1.194 -0.9429 -0.7534  1.1382
    3CHTO   H49 1176   6.601   1.600  -1.253  0.1566 -0.4338  0.0506
    3CHTO    N4 1177   6.525   1.781  -1.180 -0.5615 -0.5133  0.1094
    3CHTO   H41 1178   6.452   1.744  -1.109 -0.8493  1.8462  1.0700
    3CHTO   H42 1179   6.559   1.879  -1.151  0.7848 -1.1528  0.7527
    3CHTO   C22 1180   6.749   1.763  -1.270  0.4514  0.8367 -0.0921
    3CHTO   H50 1181   6.769   1.865  -1.236 -0.9822  1.3845 -0.8493
    3CHTO   O14 1182   6.869   1.676  -1.277 -0.1301  0.4862 -0.2401
    3CHTO   C23 1183   6.918   1.619  -1.160 -0.6622 -0.3624  0.9353
    3CHTO   H51 1184   6.953   1.700  -1.093  0.4030 -2.1156  2.5578
    3CHTO   C34 1185   7.041   1.545  -1.198 -1.0062  0.5765  0.7046
    3CHTO   O23 1186   7.015   1.429  -1.276  0.4516  0.9596  0.0382
    3CHTO   H38 1187   6.982   1.452  -1.361 -0.6011 -2.6170 -0.5709
    3CHTO   O16 1188   6.729   1.776  -1.416  0.2425  0.5074  0.0730
    3CHTO   C24 1189   6.789   1.907  -1.491  0.6074 -0.1668  0.3296
    3CHTO   H52 1190   6.853   1.968  -1.427 -0.6600  0.0301  1.4446
    3CHTO   C26 1191   6.664   1.989  -1.537  0.1913  0.5215 -0.9090
    3CHTO   H54 1192   6.600   1.913  -1.587  2.2377 -3.3486  2.0866
    3CHTO   O20 1193   6.596   2.042  -1.421  0.5212 -0.0288  0.0177
    3CHTO   H36 1194   6.509   2.063  -1.451  0.4459  0.3338  0.4723
    3CHTO   C30 1195   6.704   2.106  -1.637  0.0107  0.8620  0.4179
    3CHTO   H58 1196   6.743   2.196  -1.587  1.5369 -0.3199  1.4126
    3CHTO    N6 1197   6.587   2.160  -1.708  0.6191  0.3218 -0.2651
    3CHTO   H45 1198   6.511   2.185  -1.637 -0.7865 -1.3330 -1.1606
    3CHTO   H46 1199   6.548   2.098  -1.788  0.8285 -0.2736  0.0947
    3CHTO   C33 1200   6.809   2.065  -1.745  0.4660 -0.4392 -0.5036
    3CHTO   H61 1201   6.757   1.991  -1.808 -0.8046 -0.3825  0.4606
    3CHTO   O18 1202   6.915   2.002  -1.673 -0.0989  0.7307  0.3697
    3CHTO   C28 1203   6.873   1.873  -1.615  0.7532 -0.1183 -0.4284
    3CHTO   H56 1204   6.815   1.814  -1.687  1.7374 -0.4465 -0.9565
    3CHTO   C35 1205   6.989   1.780  -1.570 -0.0078 -0.4058  0.3676
    3CHTO   O24 1206   7.071   1.758  -1.685 -0.3597 -0.1629  0.3718
    3CHTO   H39 1207   7.039   1.683  -1.732 -3.2197  0.2801  1.5064
    3CHTO    O9 1208   6.860   2.172  -1.833 -0.2901  0.4675 -0.4412
    3CHTO   C13 1209   6.957   2.281  -1.748  0.8269 -0.1619  0.2315
    3CHTO   H26 1210   6.951   2.269  -1.638 -0.0382 -0.6023  0.1375
    3CHTO   C11 1211   6.904   2.428  -1.784 -0.3886  0.7285  0.7750
    3CHTO   H24 1212   6.802   2.450  -1.749 -0.0585  0.7682  1.7398
    3CHTO    O8 1213   6.898   2.437  -1.928  0.0427  0.2292  0.0305
    3CHTO    H3 1214   6.897   2.527  -1.954 -0.2516  0.7775  1.9295
    3CHTO    C9 1215   6.997   2.540  -1.732 -0.8138  0.1947  0.4535
    3CHTO   H22 1216   6.987   2.532  -1.622 -0.5871  0.5078  0.4983
    3CHTO    N2 1217   6.942   2.676  -1.751 -0.6392 -0.1203  0.0412
    3CHTO   H10 1218   6.835   2.683  -1.764 -0.7199  0.2642  0.9025
    3CHTO   H11 1219   6.992   2.724  -1.834 -1.2454  0.5227  0.0532
    3CHTO    C7 1220   7.150   2.506  -1.766  0.9507 -0.0324  0.4189
    3CHTO   H20 1221   7.188   2.488  -1.663 -1.5657 -2.5745  0.9756
    3CHTO    O4 1222   7.159   2.389  -1.842  0.7344  0.2662  0.3718
    3CHTO   C14 1223   7.112   2.270  -1.776  0.2282  0.2578 -0.6106
    3CHTO   H27 1224   7.161   2.256  -1.677 -1.5380  0.5183  0.3384
    3CHTO   C18 1225   7.157   2.139  -1.861 -0.4921 -0.4233  0.0396
    3CHTO   O13 1226   7.295   2.119  -1.870  0.1045  0.3062  0.5345
    3CHTO    H7 1227   7.315   2.046  -1.925 -0.4170  0.9979 -0.5928
    3CHTO    O2 1228   7.225   2.617  -1.848  0.0075 -0.0843 -0.3801
    3CHTO    C1 1229   7.356   2.640  -1.796 -0.0957 -0.2409  1.0367
    3CHTO   H14 1230   7.416   2.705  -1.863 -0.1756 -1.4165 -0.1989
    3CHTO    C2 1231   7.448   2.515  -1.770 -0.1448 -0.0493 -0.6932
    3CHTO   H15 1232   7.402   2.444  -1.700 -0.1594 -0.4203 -1.0767
    3CHTO    O6 1233   7.456   2.446  -1.898 -0.3768  0.6270  0.2369
    3CHTO    H1 1234   7.485   2.500  -1.968  2.4499 -0.5234  0.4787
    3CHTO    C3 1235   7.586   2.553  -1.716  0.1514  0.2718  0.3013
    3CHTO   H16 1236   7.638   2.607  -1.796 -1.6891  2.0730  0.2725
    3CHTO    N1 1237   7.673   2.434  -1.682  0.4074 -0.5172 -0.5812
    3CHTO    H8 1238   7.681   2.416  -1.575  0.1216 -0.9490 -0.6274
    3CHTO    H9 1239   7.627   2.347  -1.728 -2.5796 -0.8206  2.6872
    3CHTO    C4 1240   7.576   2.659  -1.598 -0.5717  0.5735  0.1855
    3CHTO   H17 1241   7.547   2.603  -1.509 -0.1952  0.2509  0.1084
    3CHTO    O1 1242   7.482   2.766  -1.625 -0.8305  0.4068  0.7756
    3CHTO    C5 1243   7.355   2.716  -1.663  0.1590 -0.0399 -0.2014
    3CHTO   H18 1244   7.328   2.646  -1.585  2.4301 -0.7146  0.0174
    3CHTO   C16 1245   7.251   2.828  -1.672  0.2689  0.3531  0.4385
    3CHTO   O11 1246   7.264   2.928  -1.774  0.0920 -0.5065 -0.0070
    3CHTO    H5 1247   7.228   3.014  -1.760 -0.7058 -1.2998  3.1811
    3CHTO    O3 1248   7.687   2.746  -1.583  0.1734 -0.4374  0.2452
    3CHTO    C6 1249   7.715   2.772  -1.441  0.0375  0.5460 -0.1638
    3CHTO   H19 1250   7.627   2.754  -1.380 -1.7869 -0.0371 -2.8796
    3CHTO    C8 1251   7.832   2.696  -1.381  0.5686 -0.9622 -0.2778
    3CHTO   H21 1252   7.923   2.695  -1.441 -0.6454 -2.3810 -2.1805
    3CHTO    O7 1253   7.787   2.561  -1.380 -0.3608  0.3886  0.0926
    3CHTO    H2 1254   7.755   2.523  -1.301 -1.3994 -2.1481 -1.4787
    3CHTO   C12 1255   7.866   2.735  -1.229 -0.2544  0.2002  0.2847
    3CHTO   H25 1256   7.779   2.708  -1.166  0.3984 -2.5098  0.0929
    3CHTO    N3 1257   7.981   2.660  -1.164  0.6033 -0.6311 -0.3074
    3CHTO   H12 1258   7.986   2.554  -1.184 -1.9428 -1.0204  0.9199
    3CHTO   H13 1259   8.004   2.685  -1.062  1.7932  1.1487 -0.9851
    3CHTO   C15 1260   7.894   2.889  -1.228 -0.1932 -0.6483  0.3102
    3CHTO   H28 1261   7.986   2.912  -1.282 -0.5109  0.8774  0.3774
    3CHTO   O10 1262   7.895   2.949  -1.094  0.3891 -0.4819 -0.0686
    3CHTO    H4 1263   7.984   2.973  -1.078  0.8343 -1.4376 -1.0426
    3CHTO    O5 1264   7.782   2.951  -1.279 -0.3663 -0.0477  0.3308
    3CHTO   C10 1265   7.764   2.919  -1.423  0.7017 -0.0009 -0.2547
    3CHTO   H23 1266   7.854   2.948  -1.476  0.3623 -0.7079 -1.2089
    3CHTO   C17 1267   7.663   3.016  -1.480  0.4139 -0.2744 -0.3336
    3CHTO   O12 1268   7.702   3.156  -1.469  0.1912 -0.3396 -0.5141
    3CHTO    H6 1269   7.643   3.193  -1.406 -0.2600 -3.2525  0.9058
    4CHTO  H203 1270   5.189   7.798   2.266  2.2499 -0.7949 -1.5476
    4CHTO   O82 1271   5.246   7.824   2.336 -0.0637  0.2375  0.0364
    4CHTO  C123 1272   5.221   7.963   2.371  0.0861  0.1071 -0.0252
    4CHTO  H227 1273   5.154   7.968   2.458  0.2225  0.4756  0.0575
    4CHTO   O77 1274   5.346   7.996   2.424  0.0594 -0.0304  0.4021
    4CHTO  C118 1275   5.363   8.122   2.481 -0.0519 -0.7852  0.7888
    4CHTO  H222 1276   5.287   8.132   2.560 -0.6706  1.3662 -0.0447
    4CHTO  C125 1277   5.511   8.126   2.543  0.3249  0.2241 -0.1920
    4CHTO   O84 1278   5.539   8.240   2.626  0.6032 -0.0959 -0.4576
    4CHTO  H205 1279   5.629   8.248   2.654  0.4735 -0.9961  0.2340
    4CHTO  C114 1280   5.337   8.230   2.381  0.3584 -0.1412  0.6952
    4CHTO  H218 1281   5.427   8.238   2.319 -1.4464  0.0236 -2.0256
    4CHTO  C116 1282   5.211   8.212   2.289  0.0737 -0.4073 -0.4806
    4CHTO  H220 1283   5.120   8.247   2.341 -2.5418 -2.8972 -3.2010
    4CHTO   O79 1284   5.222   8.293   2.178  0.2699  0.2769  0.3546
    4CHTO  H201 1285   5.136   8.317   2.149  0.9983  1.1696 -1.0800
    4CHTO  C120 1286   5.182   8.061   2.256  0.2176 -0.2502  0.2503
    4CHTO  H224 1287   5.240   8.027   2.167 -0.2416  2.3679 -1.0862
    4CHTO   N21 1288   5.043   8.035   2.206  0.3445  0.3028  0.4543
    4CHTO  H211 1289   4.979   8.015   2.291  2.4266 -1.1378  1.7229
    4CHTO  H212 1290   5.038   7.949   2.142  0.9046  1.3619 -1.0419
    4CHTO   O75 1291   5.340   8.350   2.460  0.2817  0.4459 -0.3849
    4CHTO  C112 1292   5.426   8.470   2.385 -0.4996  0.3070  0.4423
    4CHTO  H216 1293   5.414   8.483   2.276  2.9380 -2.2441 -0.3131
    4CHTO   O73 1294   5.568   8.449   2.416 -0.1247 -0.1897 -0.1415
    4CHTO  C113 1295   5.656   8.559   2.389  0.3288 -0.9665  0.2966
    4CHTO  H217 1296   5.668   8.568   2.279 -1.1960  2.3818  0.3492
    4CHTO  C124 1297   5.793   8.520   2.448 -0.0244  0.3655 -0.0100
    4CHTO   O83 1298   5.861   8.408   2.387  0.3638  0.3061  0.1536
    4CHTO  H204 1299   5.931   8.395   2.448 -0.6506 -2.1993  0.8260
    4CHTO  C109 1300   5.604   8.700   2.436  0.4884  0.0529 -0.3568
    4CHTO  H213 1301   5.593   8.702   2.545 -1.4208  0.3296 -0.5255
    4CHTO  C110 1302   5.462   8.721   2.376  0.1292  0.0648  0.0951
    4CHTO  H214 1303   5.455   8.709   2.268 -0.7356  0.6894  0.0806
    4CHTO   O78 1304   5.423   8.855   2.408  0.5547 -0.2981 -0.1974
    4CHTO  H200 1305   5.489   8.917   2.386 -0.0143  0.5158  0.3628
    4CHTO  C111 1306   5.374   8.610   2.444  0.1288  0.2036 -0.0361
    4CHTO  H215 1307   5.396   8.609   2.551  0.2681  0.6831 -0.0572
    4CHTO   N19 1308   5.225   8.619   2.423  0.0223  0.7971  0.1446
    4CHTO  H207 1309   5.195   8.710   2.372 -1.2342 -0.5144 -1.5379
    4CHTO  H208 1310   5.190   8.616   2.525  0.8936  0.4982  0.4320
    4CHTO   O74 1311   5.694   8.805   2.404 -0.4100 -0.3026  0.6125
    4CHTO  C115 1312   5.727   8.906   2.517  0.2056 -0.1146 -0.3337
    4CHTO  H219 1313   5.653   8.911   2.597  1.9805  1.8503  1.2640
    4CHTO   O76 1314   5.856   8.870   2.591 -0.1301  0.3519  0.6186
    4CHTO  C122 1315   5.968   8.849   2.500 -0.0104  0.1577  0.1484
    4CHTO  H226 1316   5.957   8.752   2.451  0.6353  0.3536 -0.3993
    4CHTO  C126 1317   6.094   8.842   2.583  0.0635  1.1174 -0.9304
    4CHTO   O85 1318   6.089   8.718   2.656 -0.8837  0.3669  0.6553
    4CHTO  H206 1319   6.114   8.646   2.602 -0.4546 -1.2928  2.9700
    4CHTO  C121 1320   5.982   8.954   2.383  0.2389 -0.5948  0.2617
    4CHTO  H225 1321   6.087   8.987   2.373  0.4835 -1.7528 -1.1240
    4CHTO   O81 1322   5.943   8.898   2.256  0.1951  0.9453 -0.0596
    4CHTO  H202 1323   5.850   8.892   2.248 -0.3029  4.0190  2.4360
    4CHTO  C119 1324   5.888   9.078   2.418  0.4163 -0.0282  0.3787
    4CHTO  H223 1325   5.928   9.114   2.513 -0.6746  0.5297  0.6361
    4CHTO  C117 1326   5.740   9.046   2.452 -0.1546  0.9758 -0.1329
    4CHTO  H221 1327   5.680   9.045   2.360  2.1215 -0.0068 -1.6474
    4CHTO   N20 1328   5.671   9.149   2.537  0.0004 -0.0704  0.9237
    4CHTO  H209 1329   5.571   9.112   2.556 -0.2492  0.3262  0.4061
    4CHTO  H210 1330   5.719   9.157   2.633 -0.5780  1.9762  1.0728
    4CHTO   O80 1331   5.903   9.216   2.328 -0.0846 -0.3122 -0.1446
    4CHTO  C103 1332   6.008   9.323   2.369 -0.4648 -0.2651  0.0089
    4CHTO  H190 1333   5.989   9.351   2.472  0.3534  0.1621  0.0484
    4CHTO  C101 1334   6.171   9.284   2.354  0.1784  0.1979 -0.2346
    4CHTO  H188 1335   6.191   9.231   2.261 -0.7456 -0.0495 -0.2966
    4CHTO   O68 1336   6.206   9.204   2.470 -0.3175  0.2784  0.2577
    4CHTO  H168 1337   6.270   9.142   2.441  0.5010  0.6267  1.2837
    4CHTO   C99 1338   6.265   9.419   2.345  0.2906  0.8121  0.4719
    4CHTO  H186 1339   6.279   9.467   2.444  0.7376 -0.8532  1.2275
    4CHTO   N17 1340   6.403   9.397   2.294  0.0310 -0.3241 -0.1684
    4CHTO  H174 1341   6.468   9.379   2.378  0.6543  0.7246 -0.4108
    4CHTO  H175 1342   6.411   9.334   2.206 -0.3835  0.9202 -1.1044
    4CHTO   C97 1343   6.188   9.527   2.257 -0.6972  0.0651  0.3347
    4CHTO  H184 1344   6.184   9.488   2.154  1.6447 -3.4162  1.4814
    4CHTO   O64 1345   6.059   9.558   2.312 -0.8329  0.5593  0.8652
    4CHTO  C104 1346   5.977   9.442   2.282  0.6597  0.1237  0.4611
    4CHTO  H191 1347   5.991   9.404   2.181  2.4975 -0.8839  1.0768
    4CHTO  C108 1348   5.827   9.489   2.288 -0.0467  0.7670  0.1103
    4CHTO   O71 1349   5.805   9.582   2.184  0.2457  0.9501  0.6701
    4CHTO  H171 1350   5.803   9.538   2.101 -0.6747  0.0169  1.1922
    4CHTO   O62 1351   6.249   9.656   2.264 -0.4655 -0.1269 -0.2842
    4CHTO   C91 1352   6.324   9.711   2.149 -0.6972 -0.3965 -0.1596
    4CHTO  H178 1353   6.344   9.634   2.076  1.1565 -3.1392  3.0913
    4CHTO   C92 1354   6.467   9.777   2.192  0.1044  0.2476  0.1622
    4CHTO  H179 1355   6.443   9.846   2.273 -0.8843 -0.5010  0.5160
    4CHTO   O66 1356   6.544   9.672   2.264  0.1414 -0.0974 -0.4756
    4CHTO  H166 1357   6.558   9.688   2.355  0.8724  1.0410 -0.7791
    4CHTO   C93 1358   6.548   9.830   2.062 -0.0039  0.0586 -0.3561
    4CHTO  H180 1359   6.605   9.747   2.018  1.5924  0.8293  0.2340
    4CHTO   N16 1360   6.656   9.925   2.104  0.2934 -0.0847  0.1198
    4CHTO  H172 1361   6.715   9.963   2.021 -1.7604  3.7085  0.2641
    4CHTO  H173 1362   6.713   9.887   2.187 -2.0757  0.5383  2.0790
    4CHTO   C94 1363   6.448   9.880   1.953  0.3122 -0.4444 -1.0069
    4CHTO  H181 1364   6.481   9.970   1.902 -0.5763  1.5808  1.8667
    4CHTO   O61 1365   6.321   9.920   2.009 -0.3795 -0.1439 -0.3291
    4CHTO   C95 1366   6.239   9.824   2.078  0.1324  0.2028 -0.0855
    4CHTO  H182 1367   6.181   9.875   2.155 -0.9699  1.1729 -1.5195
    4CHTO  C106 1368   6.133   9.766   1.970  0.3503 -0.3114 -0.1956
    4CHTO   O69 1369   6.021   9.855   1.952  0.4965  0.4005  0.0706
    4CHTO  H169 1370   6.050   9.942   1.934  0.4403  0.6863  1.2705
    4CHTO   O63 1371   6.422   9.765   1.842  0.6140  0.2081  0.0704
    4CHTO   C96 1372   6.548   9.723   1.753 -0.2249 -1.0297  0.1053
    4CHTO  H183 1373   6.642   9.739   1.804  1.0674  0.0516 -2.4861
    4CHTO   C98 1374   6.563   9.811   1.625  0.1161 -0.3956  0.3319
    4CHTO  H185 1375   6.464   9.827   1.579  1.4596 -1.0369 -2.9129
    4CHTO   O67 1376   6.617   9.940   1.661  0.0202  0.5002 -0.0198
    4CHTO  H167 1377   6.706   9.942   1.632 -0.2273 -1.3560 -0.9799
    4CHTO  C102 1378   6.662   9.743   1.518  0.2661  0.2570  0.5492
    4CHTO  H189 1379   6.762   9.746   1.564  0.3507  0.8212  0.3356
    4CHTO   N18 1380   6.678   9.832   1.402  1.4736 -0.4493 -0.3862
    4CHTO  H176 1381   6.730   9.767   1.333  0.5913  0.5287 -2.0083
    4CHTO  H177 1382   6.584   9.864   1.359  1.0527 -2.1988 -0.8337
    4CHTO  C105 1383   6.615   9.597   1.483  0.4519  0.7030  0.4097
    4CHTO  H192 1384   6.520   9.603   1.430 -0.6024  2.4468  2.3732
    4CHTO   O65 1385   6.595   9.519   1.602  0.1583 -0.0422 -0.3139
    4CHTO  C100 1386   6.530   9.577   1.718  0.0159  0.7032 -0.2689
    4CHTO  H187 1387   6.424   9.553   1.705  0.3290 -1.2333  0.4578
    4CHTO  C107 1388   6.585   9.492   1.835 -0.0611  0.9787  0.5453
    4CHTO   O70 1389   6.549   9.354   1.822  0.6504 -0.1939  0.1308
    4CHTO  H170 1390   6.466   9.335   1.863  0.9320  1.4116  1.5038
    4CHTO   O57 1391   6.711   9.541   1.376  0.0168 -0.2738  0.3832
    4CHTO   C85 1392   6.670   9.449   1.281 -0.6881  0.2292 -0.3374
    4CHTO  H157 1393   6.563   9.470   1.257 -1.0823 -3.8644 -2.7527
    4CHTO   C83 1394   6.666   9.303   1.342 -0.2615 -0.0807  0.3028
    4CHTO  H155 1395   6.600   9.305   1.428  1.0980 -0.3108  1.3680
    4CHTO   O56 1396   6.796   9.268   1.403  0.3736 -0.3988 -0.0051
    4CHTO  H135 1397   6.852   9.319   1.349  0.4157  0.1031  0.4974
    4CHTO   C81 1398   6.616   9.215   1.222 -0.1948 -1.0693  0.1311
    4CHTO  H153 1399   6.519   9.253   1.191 -2.4279 -3.2052  4.1183
    4CHTO   N14 1400   6.568   9.079   1.267 -0.2452  0.2200 -0.3693
    4CHTO  H141 1401   6.499   9.098   1.348 -0.1802  1.6961 -0.6515
    4CHTO  H142 1402   6.655   9.037   1.313 -1.3626 -1.4382  0.2781
    4CHTO   C79 1403   6.717   9.219   1.106  0.4571 -0.6424 -0.4980
    4CHTO  H151 1404   6.673   9.156   1.029  2.0890 -2.9464  0.4113
    4CHTO   O52 1405   6.746   9.352   1.051 -0.3131 -0.5874 -0.4256
    4CHTO   C86 1406   6.763   9.450   1.158 -0.2123  0.3216  0.1989
    4CHTO  H158 1407   6.869   9.427   1.184  0.1376  2.2053  0.5397
    4CHTO   C90 1408   6.760   9.593   1.094 -0.6083  1.1671  0.1947
    4CHTO   O60 1409   6.631   9.625   1.051 -1.0107  0.4046  0.3748
    4CHTO  H138 1410   6.607   9.563   0.984  2.1097  2.9058 -3.2468
    4CHTO   O50 1411   6.842   9.159   1.145  0.3793  0.0573  0.5807
    4CHTO   C73 1412   6.969   9.130   1.080 -0.9656 -0.4407  0.6806
    4CHTO  H145 1413   7.049   9.202   1.103 -0.7440  0.8438 -3.7852
    4CHTO   C74 1414   6.956   9.127   0.925 -0.2120  0.4618  0.5412
    4CHTO  H146 1415   6.912   9.217   0.880 -0.9120  0.0706  0.4373
    4CHTO   O54 1416   7.088   9.134   0.873  0.1498 -0.1872  0.1068
    4CHTO  H133 1417   7.087   9.139   0.779  2.1089  1.5386  0.1431
    4CHTO   C75 1418   6.885   8.996   0.876  0.0065  0.4615 -0.4246
    4CHTO  H147 1419   6.779   9.001   0.907  1.1602  0.2890  3.9281
    4CHTO   N13 1420   6.874   8.978   0.730 -1.0101 -0.4627 -0.5814
    4CHTO  H139 1421   6.932   8.891   0.703 -2.7465 -2.1137  0.9035
    4CHTO  H140 1422   6.769   8.967   0.707 -0.8128 -0.5700 -1.4500
    4CHTO   C76 1423   6.947   8.865   0.949  0.3674  0.3680  0.1028
    4CHTO  H148 1424   7.047   8.838   0.914 -0.7108 -3.3344 -0.3319
    4CHTO   O49 1425   6.953   8.882   1.096 -0.3202  0.2061  0.4815
    4CHTO   C77 1426   7.026   8.998   1.136 -0.4564 -0.1543  0.8088
    4CHTO  H149 1427   7.125   8.985   1.091  0.2710  2.6570  1.5114
    4CHTO   C88 1428   7.055   9.001   1.285  0.3323 -0.1353  0.5938
    4CHTO   O58 1429   6.960   8.994   1.366  0.2729 -0.1488  0.8244
    4CHTO  H136 1430   7.000   8.983   1.450 -0.2090 -0.2507  1.0419
    4CHTO   O51 1431   6.841   8.734   0.925 -0.1991 -0.1175 -0.2271
    4CHTO   C78 1432   6.926   8.605   0.941  0.0234 -0.0521 -0.2637
    4CHTO  H150 1433   7.003   8.627   1.018  0.0215  0.0724 -0.2964
    4CHTO   C80 1434   6.993   8.554   0.809 -0.8900 -0.1545  0.0317
    4CHTO  H152 1435   6.920   8.553   0.726 -0.5133  2.0527 -0.3528
    4CHTO   O55 1436   7.089   8.646   0.756  0.2962 -0.0214  0.0467
    4CHTO  H134 1437   7.062   8.735   0.748  0.0168 -0.1367 -0.2958
    4CHTO   C84 1438   7.064   8.417   0.828  0.3697 -0.1305  0.2595
    4CHTO  H156 1439   7.151   8.431   0.892  0.9336  0.2611 -0.5798
    4CHTO   N15 1440   7.121   8.356   0.702 -0.3353 -0.1941  0.6141
    4CHTO  H143 1441   7.046   8.359   0.626  0.8641 -0.5298 -0.5961
    4CHTO  H144 1442   7.203   8.413   0.663 -0.9214  0.9974  1.1011
    4CHTO   C87 1443   6.966   8.318   0.894 -0.0477  0.3561 -0.0994
    4CHTO  H159 1444   6.888   8.295   0.822 -0.5760  0.4714  0.4323
    4CHTO   O53 1445   6.903   8.383   1.033 -0.3491  0.5401 -0.0260
    4CHTO   C82 1446   6.830   8.497   1.005 -0.7512  0.0754  0.2209
    4CHTO  H154 1447   6.746   8.478   0.938  0.2344 -1.0189 -0.7378
    4CHTO   C89 1448   6.768   8.542   1.137 -0.1023  0.1276  0.5997
    4CHTO   O59 1449   6.681   8.442   1.191 -0.3710  0.1422 -0.2729
    4CHTO  H137 1450   6.597   8.452   1.151 -0.8217  2.8240  1.2305
    4CHTO   O45 1451   7.025   8.202   0.958  0.0803  0.0301 -0.1071
    4CHTO   C67 1452   6.963   8.079   0.925  0.3050  0.0844  0.4065
    4CHTO  H124 1453   6.940   8.069   0.819  2.7624 -1.5213 -0.0288
    4CHTO   C65 1454   7.057   7.955   0.956 -0.0241  0.1794  0.1548
    4CHTO  H122 1455   7.159   7.979   0.926  0.7899 -1.8768  1.2345
    4CHTO   O44 1456   7.009   7.840   0.885  0.0626 -0.0358  0.0227
    4CHTO  H102 1457   7.003   7.874   0.798 -1.6505 -0.2419  0.0444
    4CHTO   C63 1458   7.071   7.932   1.106 -1.0914 -0.1250  0.0534
    4CHTO  H120 1459   7.122   8.016   1.153 -1.0136 -0.1734  0.0566
    4CHTO   N11 1460   7.174   7.827   1.153  0.3770 -0.2250 -0.2455
    4CHTO  H108 1461   7.146   7.732   1.114  1.0960  0.3823 -2.3490
    4CHTO  H109 1462   7.276   7.843   1.123  0.7484 -2.1377 -0.0276
    4CHTO   C61 1463   6.935   7.904   1.173 -0.0434  0.7215 -0.3739
    4CHTO  H118 1464   6.956   7.912   1.281 -3.5208  1.7147  0.2891
    4CHTO   O40 1465   6.828   8.011   1.144  0.5756 -0.3983  0.2281
    4CHTO   C68 1466   6.825   8.064   1.006  0.5686  0.1028 -0.1586
    4CHTO  H125 1467   6.781   8.165   1.017 -0.3579 -0.3184  0.0599
    4CHTO   C72 1468   6.718   7.982   0.924  0.4123 -0.2522 -0.1973
    4CHTO   O48 1469   6.590   7.993   0.983 -0.5220  0.2187  0.3281
    4CHTO  H105 1470   6.557   7.905   0.975 -0.1766  0.0272  1.0142
    4CHTO   O38 1471   6.877   7.773   1.132 -0.4920 -0.3368 -0.7570
    4CHTO   C55 1472   6.802   7.701   1.239 -0.6632 -0.6061 -0.2286
    4CHTO  H112 1473   6.755   7.778   1.302 -1.6651  0.7998 -2.6317
    4CHTO   C56 1474   6.898   7.609   1.322 -0.5616  0.3413  0.0391
    4CHTO  H113 1475   6.940   7.542   1.245 -1.3312  1.9539 -1.8222
    4CHTO   O42 1476   7.005   7.681   1.386  0.3291  0.0787 -0.5179
    4CHTO  H100 1477   7.087   7.636   1.386 -1.1738 -2.8189  1.4579
    4CHTO   C57 1478   6.830   7.518   1.428  0.2262 -0.2049  0.8564
    4CHTO  H114 1479   6.797   7.578   1.513  0.7079  0.8504  0.3106
    4CHTO   N10 1480   6.925   7.404   1.463 -0.5135  0.0827  0.2319
    4CHTO  H106 1481   6.910   7.359   1.560  0.1380 -2.0158 -0.6134
    4CHTO  H107 1482   7.030   7.429   1.460  0.9962 -5.2329  1.6586
    4CHTO   C58 1483   6.708   7.463   1.363  0.0079  0.3615 -0.1696
    4CHTO  H115 1484   6.735   7.378   1.297  0.9579 -0.9128  1.8329
    4CHTO   O37 1485   6.625   7.556   1.292 -0.5335 -0.5774 -0.1169
    4CHTO   C59 1486   6.685   7.613   1.177  0.5698 -0.2799  0.5400
    4CHTO  H116 1487   6.728   7.541   1.108 -0.6774 -1.8973  1.4090
    4CHTO   C70 1488   6.570   7.687   1.108 -0.0395 -0.1970  0.3281
    4CHTO   O46 1489   6.467   7.600   1.063 -0.3312  0.4616  0.3250
    4CHTO  H103 1490   6.506   7.529   1.015  0.1162  1.4753 -0.8336
    4CHTO   O39 1491   6.610   7.407   1.484 -0.5653 -0.0231  0.3116
    4CHTO   C60 1492   6.487   7.348   1.443  0.3095 -0.2117 -0.1660
    4CHTO  H117 1493   6.438   7.395   1.357  0.3148  1.8975  0.9426
    4CHTO   C62 1494   6.505   7.200   1.411 -0.2944  0.0949  0.5437
    4CHTO  H119 1495   6.574   7.198   1.324 -1.5764  2.5914 -0.5663
    4CHTO   O43 1496   6.561   7.131   1.524  0.1325 -0.4526  0.5904
    4CHTO  H101 1497   6.506   7.148   1.598  0.0277  3.2694 -0.2724
    4CHTO   C66 1498   6.361   7.127   1.367 -0.0310 -1.0679  0.3610
    4CHTO  H123 1499   6.325   7.187   1.284  1.8486 -2.2825 -1.3706
    4CHTO   N12 1500   6.381   6.990   1.310 -0.2592  0.3476 -0.4785
    4CHTO  H110 1501   6.405   6.921   1.389 -0.1080 -0.2469 -1.0385
    4CHTO  H111 1502   6.451   6.991   1.228  0.9685 -2.2125  0.4736
    4CHTO   C69 1503   6.258   7.153   1.482  0.0929  0.5660 -0.1355
    4CHTO  H126 1504   6.280   7.091   1.572  1.4787 -1.2678 -1.6823
    4CHTO   O41 1505   6.253   7.307   1.529 -0.1546  0.0812  0.2365
    4CHTO   C64 1506   6.390   7.359   1.567  0.0867 -0.3152  0.3513
    4CHTO  H121 1507   6.422   7.308   1.660 -2.3187 -1.3841  0.6466
    4CHTO   C71 1508   6.376   7.514   1.609  1.1282 -0.3941  0.1063
    4CHTO   O47 1509   6.486   7.555   1.689  0.1905  0.1996  0.0878
    4CHTO  H104 1510   6.454   7.599   1.765 -3.6071  2.4361 -2.6462
    4CHTO   O34 1511   6.134   7.126   1.456 -0.2994 -0.0842 -0.0244
    4CHTO   C49 1512   5.992   7.177   1.425 -1.0148 -0.1389 -0.4827
    4CHTO   H91 1513   5.992   7.280   1.462 -0.1175 -0.4800  0.4905
    4CHTO   C47 1514   5.893   7.077   1.492 -0.4517 -1.0288  0.5899
    4CHTO   H89 1515   5.791   7.117   1.478 -0.6684 -0.7099  2.8944
    4CHTO   O33 1516   5.905   7.063   1.635 -0.7908 -0.1899  0.4123
    4CHTO   H70 1517   5.826   7.085   1.681  0.2931  0.2291  2.1167
    4CHTO   C45 1518   5.913   6.924   1.431  0.8924 -0.6430 -0.1772
    4CHTO   H87 1519   5.974   6.859   1.496 -0.3639 -1.6089  0.0645
    4CHTO    N8 1520   5.780   6.860   1.424  0.6119  0.1831  0.2701
    4CHTO   H75 1521   5.787   6.757   1.456 -1.2763  0.2022  0.8234
    4CHTO   H76 1522   5.710   6.907   1.492  0.3011 -0.1605  0.1888
    4CHTO   C43 1523   5.987   6.928   1.287  0.7010  0.3762  0.3248
    4CHTO   H85 1524   6.092   6.932   1.315 -0.0886 -2.6447  4.1370
    4CHTO   O29 1525   5.945   7.046   1.212  0.3614  0.1332  0.3743
    4CHTO   C50 1526   5.969   7.179   1.271 -0.0520  0.4223 -0.6478
    4CHTO   H92 1527   6.057   7.230   1.229 -0.8831  2.0094 -0.5239
    4CHTO   C54 1528   5.861   7.280   1.233  0.3536  0.8005 -0.2189
    4CHTO   O36 1529   5.730   7.222   1.247 -1.0708  0.5518  0.1225
    4CHTO   H72 1530   5.661   7.282   1.226 -1.7405  0.1603  1.1363
    4CHTO   O27 1531   5.982   6.801   1.222  0.5180  0.2484  0.5206
    4CHTO   C37 1532   6.057   6.712   1.131  0.0315  0.2030 -0.0343
    4CHTO   H79 1533   5.989   6.639   1.085 -0.2145  0.0249  0.5993
    4CHTO   C38 1534   6.117   6.800   1.023 -0.3820  0.1466  0.0373
    4CHTO   H80 1535   6.164   6.887   1.071 -1.1046 -0.1342  1.2763
    4CHTO   O31 1536   6.014   6.858   0.941 -0.1893  0.0362  0.0646
    4CHTO   H68 1537   5.982   6.923   1.001  0.3381 -0.8948  1.3920
    4CHTO   C39 1538   6.232   6.726   0.937  0.3902 -0.2680  0.1418
    4CHTO   H81 1539   6.181   6.655   0.873  0.9708 -1.0617  0.5597
    4CHTO    N7 1540   6.310   6.826   0.850  0.5214  0.2809  0.6579
    4CHTO   H73 1541   6.266   6.841   0.752 -0.7887 -3.0729  0.7038
    4CHTO   H74 1542   6.417   6.813   0.838  0.2298 -0.2617 -1.5170
    4CHTO   C40 1543   6.327   6.656   1.041 -0.8150  0.5108 -0.3438
    4CHTO   H82 1544   6.369   6.731   1.107  2.0986 -1.4175  0.0693
    4CHTO   O26 1545   6.239   6.567   1.114  0.1256  0.1215  0.1768
    4CHTO   C41 1546   6.162   6.640   1.210  0.0426  0.2587  0.2305
    4CHTO   H83 1547   6.233   6.709   1.259 -0.1088 -0.2825  1.2094
    4CHTO   C52 1548   6.117   6.542   1.317 -0.0565  0.4607 -0.0320
    4CHTO   O35 1549   6.060   6.599   1.421  0.3784 -0.7334  0.2712
    4CHTO   H71 1550   5.974   6.564   1.431  0.2670 -0.3957  0.5166
    4CHTO   O28 1551   6.439   6.581   0.987  0.5003 -0.0233 -0.2322
    4CHTO   C42 1552   6.544   6.553   1.077  0.4768 -0.4361  0.2007
    4CHTO   H84 1553   6.611   6.511   1.002 -0.7552 -1.3078 -0.4244
    4CHTO   C44 1554   6.520   6.439   1.174 -0.0644 -0.2934 -0.1768
    4CHTO   H86 1555   6.442   6.468   1.244  3.7152 -0.5487  4.4030
    4CHTO   O32 1556   6.483   6.323   1.103 -0.1085 -0.4789  0.5365
    4CHTO   H69 1557   6.567   6.305   1.067 -0.3230 -1.9277  0.7408
    4CHTO   C48 1558   6.642   6.415   1.277 -0.7678  0.0919 -0.8168
    4CHTO   H90 1559   6.716   6.372   1.211 -0.8907  0.6852 -1.3417
    4CHTO    N9 1560   6.603   6.320   1.391  0.3886  0.3940  0.4450
    4CHTO   H77 1561   6.524   6.257   1.352 -0.4124  0.5483  1.7800
    4CHTO   H78 1562   6.681   6.255   1.427 -2.7162 -3.2363  0.9643
    4CHTO   C51 1563   6.696   6.550   1.334 -0.2754 -0.5236  0.1908
    4CHTO   H93 1564   6.612   6.590   1.392 -0.2850  0.0950 -0.2449
    4CHTO   O30 1565   6.726   6.640   1.227 -0.1180 -0.6842 -0.2691
    4CHTO   C46 1566   6.614   6.682   1.150  0.1554  0.0895 -0.5650
    4CHTO   H88 1567   6.544   6.736   1.213  0.6815  0.0806  0.0369
    4CHTO   C53 1568   6.665   6.789   1.049 -0.2324  0.1192 -0.1595
    4CHTO   O72 1569   6.766   6.742   0.956  0.1147  0.4004 -0.1607
    4CHTO  H199 1570   6.736   6.709   0.873  4.1819  2.4600 -2.6472
    4CHTO   O22 1571   6.814   6.542   1.413 -0.2995 -0.1037  0.0354
    4CHTO   C31 1572   6.819   6.605   1.548 -0.1285  0.5879  0.5845
    4CHTO   H59 1573   6.713   6.625   1.575 -0.4506 -0.9151  0.4469
    4CHTO   C29 1574   6.869   6.519   1.658  0.3334 -0.9242 -0.2966
    4CHTO   H57 1575   6.977   6.509   1.639  0.2581 -1.3016 -0.5373
    4CHTO   O21 1576   6.802   6.388   1.651 -0.0551  0.3816  0.1968
    4CHTO   H37 1577   6.721   6.385   1.700 -0.1349 -0.4796  0.0177
    4CHTO   C27 1578   6.848   6.578   1.804 -0.1702 -0.5450 -0.8565
    4CHTO   H55 1579   6.740   6.576   1.826  0.4646  0.6928  2.5970
    4CHTO    N5 1580   6.909   6.495   1.908 -0.9119 -0.2720 -0.0904
    4CHTO   H43 1581   7.008   6.458   1.887 -1.1613 -0.4579 -0.9452
    4CHTO   H44 1582   6.852   6.409   1.940 -0.5066 -1.5053 -2.5644
    4CHTO   C25 1583   6.916   6.718   1.798  0.8060  0.2039  0.5077
    4CHTO   H53 1584   7.026   6.720   1.794  0.7438  0.3141 -1.1819
    4CHTO   O17 1585   6.854   6.795   1.691 -0.1284 -0.1303 -0.1846
    4CHTO   C32 1586   6.897   6.745   1.566 -0.0301  0.9963  0.1597
    4CHTO   H60 1587   7.003   6.721   1.559  0.2240  2.3375 -0.7364
    4CHTO   C36 1588   6.858   6.840   1.450 -0.2871 -0.6948  0.1546
    4CHTO   O25 1589   6.910   6.976   1.446  0.2672  0.6894 -0.5553
    4CHTO   H40 1590   6.908   7.011   1.359  0.2724  0.8969 -0.4729
    4CHTO   O15 1591   6.892   6.807   1.933  0.2645 -0.2626  0.5008
    4CHTO   C19 1592   6.857   6.934   1.989 -0.1230  0.0355 -0.2098
    4CHTO   H47 1593   6.940   6.953   2.059  0.8805  2.0423 -1.8993
    4CHTO   C20 1594   6.834   7.059   1.900  0.1371 -0.1349  0.0335
    4CHTO   H48 1595   6.752   7.041   1.830  0.9480 -1.9340 -0.4770
    4CHTO   O19 1596   6.946   7.067   1.813 -0.2410  0.0513 -0.4584
    4CHTO   H35 1597   6.970   6.982   1.782  0.4553  0.5919 -1.4267
    4CHTO   C21 1598   6.808   7.197   1.971 -0.1842 -0.0840 -0.4787
    4CHTO   H49 1599   6.902   7.225   2.017  0.1793  1.9073 -2.3876
    4CHTO    N4 1600   6.763   7.300   1.877  0.0454  0.3398  0.5237
    4CHTO   H41 1601   6.670   7.275   1.828  1.9082  0.2427 -3.1221
    4CHTO   H42 1602   6.838   7.315   1.801  0.4207 -1.1157  0.5862
    4CHTO   C22 1603   6.708   7.178   2.088  0.1323  0.3499 -0.2952
    4CHTO   H50 1604   6.604   7.190   2.056  0.2238 -1.1876 -1.2096
    4CHTO   O14 1605   6.724   7.047   2.156  0.3440 -0.1179 -0.3075
    4CHTO   C23 1606   6.732   6.926   2.077  0.2547 -0.6620 -0.3003
    4CHTO   H51 1607   6.641   6.924   2.016 -0.7626  0.9156  1.1124
    4CHTO   C34 1608   6.756   6.807   2.172 -0.2373  0.8148 -0.2597
    4CHTO   O23 1609   6.644   6.778   2.257 -0.1116  0.0230 -0.0692
    4CHTO   H38 1610   6.660   6.700   2.307  2.6965  0.7359  0.2343
    4CHTO   O16 1611   6.744   7.276   2.185 -0.0312 -0.1611  0.2897
    4CHTO   C24 1612   6.617   7.348   2.239  0.1362  0.1091  0.0228
    4CHTO   H52 1613   6.525   7.316   2.191 -0.0601  1.1141 -0.2684
    4CHTO   C26 1614   6.623   7.496   2.208  0.2911  1.1891 -0.1349
    4CHTO   H54 1615   6.631   7.508   2.098 -1.2928 -1.6197 -0.6007
    4CHTO   O20 1616   6.491   7.555   2.235 -0.4360  0.3290  0.0455
    4CHTO   H36 1617   6.468   7.532   2.323 -2.0923 -0.7705 -0.6500
    4CHTO   C30 1618   6.733   7.569   2.293 -0.5708  0.1625 -0.4738
    4CHTO   H58 1619   6.695   7.663   2.338 -2.0553  0.7438 -2.8657
    4CHTO    N6 1620   6.845   7.620   2.211  0.1180 -0.1047 -0.1008
    4CHTO   H45 1621   6.924   7.672   2.263  0.7819 -0.8554 -0.3421
    4CHTO   H46 1622   6.891   7.541   2.154 -0.9211 -0.7280 -0.1006
    4CHTO   C33 1623   6.768   7.485   2.413  0.4112  0.2456 -0.3121
    4CHTO   H61 1624   6.844   7.410   2.386  0.5894 -0.5045  2.1271
    4CHTO   O18 1625   6.656   7.422   2.466  0.1682  0.3672  0.1772
    4CHTO   C28 1626   6.605   7.308   2.391 -0.1640  0.0332 -0.4758
    4CHTO   H56 1627   6.672   7.226   2.415 -1.1175 -0.3075  1.1236
    4CHTO   C35 1628   6.454   7.282   2.433  0.2329 -0.3173 -0.2462
    4CHTO   O24 1629   6.399   7.160   2.392  0.1180 -0.4007 -0.0975
    4CHTO   H39 1630   6.350   7.172   2.313  0.4576  2.1838  0.0557
    4CHTO    O9 1631   6.835   7.567   2.513 -0.2744  0.0109  0.2290
    4CHTO   C13 1632   7.002   7.564   2.536 -0.5508  0.0226  0.0769
    4CHTO   H26 1633   7.063   7.607   2.453  2.0365 -0.1752  1.8112
    4CHTO   C11 1634   7.038   7.414   2.554  0.6071  0.3505  0.1858
    4CHTO   H24 1635   7.026   7.367   2.456  0.5550  0.3139  0.2098
    4CHTO    O8 1636   6.949   7.345   2.642 -0.2530 -0.6732 -0.4982
    4CHTO    H3 1637   6.968   7.254   2.648  0.7913 -0.3476  1.7765
    4CHTO    C9 1638   7.176   7.411   2.621 -0.4570  0.0903  0.6912
    4CHTO   H22 1639   7.239   7.474   2.557 -1.4666  2.4895  1.9932
    4CHTO    N2 1640   7.231   7.271   2.629 -0.1822 -0.1232 -0.1783
    4CHTO   H10 1641   7.156   7.219   2.686 -0.8430  1.2051  0.1989
    4CHTO   H11 1642   7.233   7.239   2.526  0.9921  0.2239 -0.2712
    4CHTO    C7 1643   7.172   7.485   2.763 -0.2022  0.3328 -0.2953
    4CHTO   H20 1644   7.270   7.535   2.778 -0.6312  1.8661 -2.3234
    4CHTO    O4 1645   7.063   7.574   2.780 -0.5231 -0.2076  0.5477
    4CHTO   C14 1646   7.036   7.655   2.661  0.1674 -0.1118 -0.1304
    4CHTO   H27 1647   7.126   7.712   2.632  0.5429 -1.3233 -1.4134
    4CHTO   C18 1648   6.928   7.758   2.697 -0.3129 -0.0925  0.2824
    4CHTO   O13 1649   6.971   7.874   2.770 -0.3501 -0.4673  0.0921
    4CHTO    H7 1650   6.937   7.875   2.858  0.5183  0.6235  0.4200
    4CHTO    O2 1651   7.158   7.379   2.889 -0.3357 -0.1527  0.4017
    4CHTO    C1 1652   7.177   7.440   3.013  0.0792  0.3689 -0.7143
    4CHTO   H14 1653   7.151   7.548   3.017  2.0825  0.9507 -2.4815
    4CHTO    C2 1654   7.317   7.426   3.075  0.7026  0.2725 -0.3349
    4CHTO   H15 1655   7.354   7.322   3.073  1.0583  0.4151 -2.5655
    4CHTO    O6 1656   7.404   7.506   2.995 -0.0309  0.1422 -0.1659
    4CHTO    H1 1657   7.451   7.460   2.929 -1.6711 -1.2198 -0.3961
    4CHTO    C3 1658   7.307   7.489   3.230 -0.4336  0.0755  1.4022
    4CHTO   H16 1659   7.259   7.588   3.221 -1.4958 -0.4947  0.6743
    4CHTO    N1 1660   7.445   7.501   3.293 -0.2930 -0.1741  0.3647
    4CHTO    H8 1661   7.527   7.449   3.245  1.9627 -0.1366  3.9943
    4CHTO    H9 1662   7.459   7.477   3.397  1.6049  1.2997  0.4836
    4CHTO    C4 1663   7.207   7.402   3.307 -0.6635 -0.3518  0.3636
    4CHTO   H17 1664   7.248   7.301   3.313  2.4125  0.6331 -2.6609
    4CHTO    O1 1665   7.084   7.414   3.239 -0.1289 -0.2106 -0.8102
    4CHTO    C5 1666   7.078   7.369   3.104 -0.1735  0.0940 -0.4692
    4CHTO   H18 1667   7.105   7.264   3.112  0.3547  0.2841  0.1974
    4CHTO   C16 1668   6.931   7.382   3.049  0.6358 -0.3510  0.0312
    4CHTO   O11 1669   6.835   7.298   3.117  0.0132  0.1418 -0.4842
    4CHTO    H5 1670   6.880   7.260   3.189  2.2935 -0.7394 -2.3292
    4CHTO    O3 1671   7.178   7.449   3.441 -0.0644 -0.9054  0.1205
    4CHTO    C6 1672   7.081   7.358   3.508  0.0910  0.0301 -0.6300
    4CHTO   H19 1673   7.028   7.293   3.440 -0.7092 -1.1252  1.0746
    4CHTO    C8 1674   7.157   7.253   3.600 -0.5415 -0.2037 -0.3499
    4CHTO   H21 1675   7.223   7.300   3.672 -0.6707  2.9485 -2.1562
    4CHTO    O7 1676   7.243   7.179   3.510  0.5074  0.2814 -0.0110
    4CHTO    H2 1677   7.329   7.164   3.545 -0.5038 -0.4453  2.2813
    4CHTO   C12 1678   7.056   7.170   3.670  0.0930  0.5664  0.2029
    4CHTO   H25 1679   7.008   7.097   3.602  1.6557  0.1027 -0.4355
    4CHTO    N3 1680   7.120   7.079   3.780 -0.6446  0.2934 -0.1453
    4CHTO   H12 1681   7.093   6.976   3.762  1.0478  0.1520 -2.0902
    4CHTO   H13 1682   7.093   7.108   3.880  0.1828 -3.6075  1.2793
    4CHTO   C15 1683   6.943   7.251   3.737 -0.3471 -0.7722 -0.0331
    4CHTO   H28 1684   6.983   7.302   3.825 -1.8101 -1.1929  0.8935
    4CHTO   O10 1685   6.812   7.157   3.792  0.1259  0.4701  0.3433
    4CHTO    H4 1686   6.845   7.080   3.835  1.8382  0.8943 -0.1620
    4CHTO    O5 1687   6.879   7.349   3.649  0.3960  0.7301 -0.1592
    4CHTO   C10 1688   6.974   7.435   3.584 -0.2811 -0.3595  0.6723
    4CHTO   H23 1689   7.025   7.492   3.662 -0.3338  1.8002 -0.8123
    4CHTO   C17 1690   6.890   7.523   3.492 -0.1967 -0.2472  0.4937
    4CHTO   O12 1691   6.821   7.444   3.397 -0.3962 -0.1575 -0.1335
    4CHTO    H6 1692   6.757   7.388   3.437 -0.3498  0.1820  0.4306
    5CHTO  H203 1693   7.876   3.803   2.160  0.1861 -1.6606  1.0542
    5CHTO   O82 1694   7.863   3.861   2.233 -0.0591 -0.1546 -0.1595
    5CHTO  C123 1695   7.729   3.858   2.275  0.2802 -0.9405  0.0217
    5CHTO  H227 1696   7.712   3.759   2.321 -3.5038  0.4202  1.7300
    5CHTO   O77 1697   7.726   3.957   2.380  0.3222  0.3734 -0.1339
    5CHTO  C118 1698   7.599   3.965   2.442  0.4561 -0.3844  0.5834
    5CHTO  H222 1699   7.562   3.866   2.475 -1.1625 -0.0093 -0.0777
    5CHTO  C125 1700   7.610   4.061   2.563  0.7457  0.4510  0.5759
    5CHTO   O84 1701   7.626   4.196   2.532 -0.1748 -0.2288 -0.0127
    5CHTO  H205 1702   7.709   4.208   2.488 -0.0436  1.0038  0.5531
    5CHTO  C114 1703   7.493   4.014   2.341  0.4247 -0.7378 -0.4747
    5CHTO  H218 1704   7.522   4.114   2.308 -0.8357 -0.3238 -0.3623
    5CHTO  C116 1705   7.485   3.930   2.212 -0.4034 -0.3827  0.3230
    5CHTO  H220 1706   7.439   3.832   2.236 -0.2115 -0.2686  1.1586
    5CHTO   O79 1707   7.397   3.998   2.120  0.3986 -0.4370 -0.2637
    5CHTO  H201 1708   7.429   3.965   2.038  2.4819 -0.0405  0.3749
    5CHTO  C120 1709   7.632   3.902   2.156 -0.5490  0.5170 -0.4393
    5CHTO  H224 1710   7.667   3.996   2.109  0.0497  1.1518  1.2325
    5CHTO   N21 1711   7.632   3.810   2.046  0.3516 -0.4806 -0.4501
    5CHTO  H211 1712   7.565   3.725   2.059 -1.5434  1.0737  0.1881
    5CHTO  H212 1713   7.611   3.863   1.955  1.9628  2.3089  0.7353
    5CHTO   O75 1714   7.372   4.021   2.421 -0.9038 -0.1907 -0.2927
    5CHTO  C112 1715   7.239   4.094   2.354  0.5904  0.2655  0.2761
    5CHTO  H216 1716   7.217   4.039   2.262  2.0042  0.2164 -0.0452
    5CHTO   O73 1717   7.274   4.230   2.323  0.4774 -0.5973 -0.2060
    5CHTO  C113 1718   7.172   4.297   2.250 -0.1885  0.8056  0.4908
    5CHTO  H217 1719   7.152   4.232   2.163 -0.3090 -2.0630  2.5902
    5CHTO  C124 1720   7.242   4.422   2.192 -0.2511  0.6862  0.1014
    5CHTO   O83 1721   7.147   4.486   2.106 -0.3393 -0.1018  0.1954
    5CHTO  H204 1722   7.094   4.532   2.168 -3.6151 -2.9300 -0.3345
    5CHTO  C109 1723   7.049   4.309   2.345 -0.1135  0.4112  0.2597
    5CHTO  H213 1724   7.083   4.367   2.432  1.7408 -0.0805 -0.1293
    5CHTO  C110 1725   7.004   4.174   2.400 -0.1230 -0.7358  0.0026
    5CHTO  H214 1726   6.961   4.113   2.321  1.6220 -2.1220  0.1095
    5CHTO   O78 1727   6.905   4.182   2.509  0.1597 -0.2052 -0.3233
    5CHTO  H200 1728   6.869   4.268   2.520  1.4567  0.6391 -2.3071
    5CHTO  C111 1729   7.121   4.092   2.453 -0.4023 -0.6127 -0.0531
    5CHTO  H215 1730   7.149   4.137   2.550 -0.5614 -1.9374  0.6227
    5CHTO   N19 1731   7.093   3.946   2.484 -0.6478 -0.5085  0.6883
    5CHTO  H207 1732   7.008   3.947   2.551  1.0322  0.4959  2.8758
    5CHTO  H208 1733   7.062   3.891   2.397  0.6848  0.1405 -0.2127
    5CHTO   O74 1734   6.938   4.375   2.287 -0.0899  0.5603  0.7729
    5CHTO  C115 1735   6.867   4.482   2.364 -0.1220 -0.4856  0.1088
    5CHTO  H219 1736   6.922   4.510   2.454 -1.9514 -2.8922  2.0459
    5CHTO   O76 1737   6.850   4.614   2.275 -0.4290 -0.5895 -0.2163
    5CHTO  C122 1738   6.776   4.607   2.151  0.4847  0.3725 -0.1742
    5CHTO  H226 1739   6.830   4.546   2.079 -0.7236  0.0669 -0.8356
    5CHTO  C126 1740   6.762   4.746   2.080 -0.1004 -0.7316 -0.5820
    5CHTO   O85 1741   6.699   4.718   1.957  0.1141 -0.3429 -0.4430
    5CHTO  H206 1742   6.753   4.670   1.898 -0.1958  0.4575 -1.3974
    5CHTO  C121 1743   6.630   4.541   2.179  0.1295 -0.1357  0.0169
    5CHTO  H225 1744   6.556   4.618   2.148  0.7909  1.1724  1.6140
    5CHTO   O81 1745   6.620   4.431   2.084 -0.4705 -0.2779 -0.1058
    5CHTO  H202 1746   6.609   4.462   1.996 -1.0988 -0.4222 -0.0813
    5CHTO  C119 1747   6.598   4.490   2.322 -0.3797  0.0129 -1.0970
    5CHTO  H223 1748   6.578   4.585   2.371 -0.1502 -0.6620  0.3352
    5CHTO  C117 1749   6.721   4.429   2.406 -0.1338 -0.5994 -0.3078
    5CHTO  H221 1750   6.724   4.321   2.389  0.5598 -0.7075  0.4726
    5CHTO   N20 1751   6.703   4.446   2.559 -0.4328  0.5446  0.0244
    5CHTO  H209 1752   6.610   4.421   2.606 -0.9729  1.3692 -0.5976
    5CHTO  H210 1753   6.743   4.543   2.586  0.6965  0.7547 -2.2585
    5CHTO   O80 1754   6.469   4.431   2.333  0.2039  0.2070 -0.0014
    5CHTO  C103 1755   6.435   4.277   2.246 -0.8221 -0.2591 -0.1242
    5CHTO  H190 1756   6.436   4.303   2.140  0.2112 -0.5159 -0.1789
    5CHTO  C101 1757   6.520   4.149   2.269 -0.6793 -0.4713  0.4013
    5CHTO  H188 1758   6.550   4.150   2.374  0.9814 -1.1596 -0.0562
    5CHTO   O68 1759   6.650   4.156   2.182  0.1807 -0.0870 -0.2109
    5CHTO  H168 1760   6.719   4.110   2.227 -0.3947 -1.1452 -0.4187
    5CHTO   C99 1761   6.439   4.018   2.233  0.2038 -0.0208 -0.4181
    5CHTO  H186 1762   6.433   4.016   2.122  0.5309 -0.2203 -0.4349
    5CHTO   N17 1763   6.507   3.893   2.268 -0.4736 -0.3950  0.0059
    5CHTO  H174 1764   6.521   3.832   2.180 -1.7494  0.1478 -0.5903
    5CHTO  H175 1765   6.470   3.838   2.353 -0.4723 -1.5198 -0.6933
    5CHTO   C97 1766   6.292   4.015   2.287  0.4567  0.0264  0.4623
    5CHTO  H184 1767   6.285   4.007   2.397  1.3192 -0.7082  0.4638
    5CHTO   O64 1768   6.227   4.136   2.238 -0.3584  0.0493  0.2413
    5CHTO  C104 1769   6.285   4.257   2.287 -0.4865  0.7117  0.4791
    5CHTO  H191 1770   6.279   4.253   2.395  0.5462  0.1416  0.5256
    5CHTO  C108 1771   6.204   4.374   2.233  0.0346 -0.1505  0.2900
    5CHTO   O71 1772   6.085   4.411   2.303  0.6329  0.5367 -0.2654
    5CHTO  H171 1773   6.106   4.450   2.385  2.0499  0.4930 -0.5851
    5CHTO   O62 1774   6.205   3.907   2.236  0.5311 -0.2617 -0.2410
    5CHTO   C91 1775   6.084   3.868   2.308 -0.3936 -0.5051  0.2040
    5CHTO  H178 1776   6.070   3.925   2.400 -1.1089 -0.6666  0.1974
    5CHTO   C92 1777   6.094   3.718   2.356  0.4734  0.6238 -0.7546
    5CHTO  H179 1778   6.141   3.662   2.275 -0.2430  1.9928 -2.1360
    5CHTO   O66 1779   6.193   3.716   2.462 -0.4894 -0.0703  0.4019
    5CHTO  H166 1780   6.184   3.631   2.501 -0.8182  0.3109  1.1686
    5CHTO   C93 1781   5.950   3.654   2.394  0.1172 -0.0353  0.1876
    5CHTO  H180 1782   5.927   3.691   2.495  2.8416 -4.2989  2.4764
    5CHTO   N16 1783   5.957   3.507   2.406 -0.3085 -0.4490 -0.0588
    5CHTO  H172 1784   5.996   3.463   2.316  0.9161 -0.8731  0.6695
    5CHTO  H173 1785   5.860   3.472   2.441  0.4151 -1.6321  0.8106
    5CHTO   C94 1786   5.837   3.697   2.284  0.4154  0.4568 -0.1531
    5CHTO  H181 1787   5.859   3.660   2.184 -0.8692  0.3717 -0.4165
    5CHTO   O61 1788   5.838   3.842   2.288 -0.1042 -0.3314 -0.3620
    5CHTO   C95 1789   5.953   3.888   2.223  0.3018  0.3157 -0.0644
    5CHTO  H182 1790   5.960   3.833   2.129  1.3964  0.6604 -0.1861
    5CHTO  C106 1791   5.932   4.051   2.186  0.0706 -0.7372  0.3448
    5CHTO   O69 1792   5.840   4.063   2.079  0.3780  0.4728 -0.0026
    5CHTO  H169 1793   5.859   4.006   2.007 -0.3240 -0.0384  0.2115
    5CHTO   O63 1794   5.687   3.656   2.340  0.1686  0.0476 -1.1079
    5CHTO   C96 1795   5.594   3.634   2.205  0.3137 -0.2925 -0.2441
    5CHTO  H183 1796   5.656   3.614   2.117  0.0301 -2.4312  0.0283
    5CHTO   C98 1797   5.514   3.764   2.171 -0.4237 -0.8839 -0.5836
    5CHTO  H185 1798   5.450   3.796   2.255  0.8348 -1.1423  0.4862
    5CHTO   O67 1799   5.607   3.867   2.157 -0.0845  0.3984 -0.4164
    5CHTO  H167 1800   5.650   3.891   2.237 -0.7066 -1.7353  0.5761
    5CHTO  C102 1801   5.423   3.753   2.042  0.3512  0.1225 -1.0647
    5CHTO  H189 1802   5.490   3.744   1.955 -2.8664 -1.6473 -3.4767
    5CHTO   N18 1803   5.334   3.869   2.013  0.1982  0.0511 -0.3428
    5CHTO  H176 1804   5.387   3.949   1.964  0.3975  0.3720  0.3789
    5CHTO  H177 1805   5.300   3.903   2.110 -1.4296 -0.5350 -0.7011
    5CHTO  C105 1806   5.351   3.611   2.035  0.3632 -0.2154 -0.1795
    5CHTO  H192 1807   5.261   3.625   2.095  0.6118 -1.2833  0.4528
    5CHTO   O65 1808   5.428   3.498   2.092 -0.5543  0.0553  0.3240
    5CHTO  C100 1809   5.489   3.519   2.220  0.1533 -0.5112  0.2918
    5CHTO  H187 1810   5.412   3.549   2.293  0.0387  1.5794 -0.6518
    5CHTO  C107 1811   5.556   3.393   2.286 -0.1853  0.1710 -0.0997
    5CHTO   O70 1812   5.657   3.335   2.200 -0.2729  0.1288  0.0503
    5CHTO  H170 1813   5.732   3.393   2.198 -0.1536 -0.0132  0.3373
    5CHTO   O57 1814   5.319   3.576   1.891 -0.4094  0.5766 -0.2479
    5CHTO   C85 1815   5.233   3.461   1.854 -0.2368 -1.2699 -0.4274
    5CHTO  H157 1816   5.138   3.476   1.909  2.0430  2.8620  2.6847
    5CHTO   C83 1817   5.286   3.323   1.910  0.5167  0.2504  0.4466
    5CHTO  H155 1818   5.269   3.312   2.017 -0.0520 -4.6710 -0.0221
    5CHTO   O56 1819   5.427   3.315   1.889 -0.0889  0.6331 -0.5469
    5CHTO  H135 1820   5.440   3.286   1.801  0.2256 -0.7882 -0.0446
    5CHTO   C81 1821   5.211   3.202   1.846 -0.0863  0.7690 -0.8323
    5CHTO  H153 1822   5.106   3.220   1.870  0.2119  2.1269 -0.4858
    5CHTO   N14 1823   5.244   3.068   1.905  0.1487  0.3771  0.3355
    5CHTO  H141 1824   5.317   3.014   1.848 -0.9877 -2.0713  1.1516
    5CHTO  H142 1825   5.262   3.072   2.010 -0.6788  2.7612  0.4191
    5CHTO   C79 1826   5.232   3.205   1.691 -0.4243  0.2577 -0.5087
    5CHTO  H151 1827   5.183   3.117   1.649  0.8183 -0.4018 -0.6117
    5CHTO   O52 1828   5.170   3.330   1.634 -0.2944 -1.1371 -0.0228
    5CHTO   C86 1829   5.208   3.457   1.699  0.0338  0.0730  0.5567
    5CHTO  H158 1830   5.295   3.491   1.639 -1.0980  0.9690 -0.6035
    5CHTO   C90 1831   5.093   3.559   1.670  0.0586 -0.1427 -0.4801
    5CHTO   O60 1832   4.967   3.538   1.732 -0.2757  0.3561  0.6641
    5CHTO  H138 1833   4.975   3.542   1.825 -1.1109 -1.6081  0.8342
    5CHTO   O50 1834   5.367   3.205   1.653 -0.2119 -0.6217 -0.2394
    5CHTO   C73 1835   5.425   3.148   1.538 -0.4564  0.0461 -0.0800
    5CHTO  H145 1836   5.353   3.160   1.457  0.9410  1.6245 -1.1236
    5CHTO   C74 1837   5.476   2.999   1.575 -0.6163 -0.0578 -0.0310
    5CHTO  H146 1838   5.393   2.938   1.612  0.3689 -1.9006 -0.8309
    5CHTO   O54 1839   5.517   2.931   1.452  0.2372 -0.1912 -0.2908
    5CHTO  H133 1840   5.582   2.865   1.470  0.2436  0.1461  0.9377
    5CHTO   C75 1841   5.584   3.019   1.681 -0.2022  0.0221 -0.0501
    5CHTO  H147 1842   5.545   3.073   1.769  1.9557  0.7820  0.4739
    5CHTO   N13 1843   5.635   2.891   1.734  0.4411 -0.4341  0.0674
    5CHTO  H139 1844   5.547   2.850   1.782 -1.1333  0.8882 -1.6499
    5CHTO  H140 1845   5.661   2.827   1.652 -0.7986 -0.3565 -0.3868
    5CHTO   C76 1846   5.701   3.112   1.636  0.5140 -0.2610 -0.1314
    5CHTO  H148 1847   5.765   3.066   1.561  1.4128 -0.9647  1.0461
    5CHTO   O49 1848   5.655   3.247   1.591 -0.1273  0.1414  0.0792
    5CHTO   C77 1849   5.551   3.236   1.494  0.4020  0.4781  0.0697
    5CHTO  H149 1850   5.592   3.190   1.404  0.1014 -0.7692  0.5655
    5CHTO   C88 1851   5.506   3.381   1.453 -0.1055  0.4329  0.7052
    5CHTO   O58 1852   5.429   3.377   1.338  0.5220 -0.0441  0.6232
    5CHTO  H136 1853   5.358   3.318   1.349 -1.1858  1.2503 -2.5980
    5CHTO   O51 1854   5.792   3.144   1.779 -0.7057 -0.0298 -0.3424
    5CHTO   C78 1855   5.932   3.226   1.733 -0.3938 -0.1493 -0.6396
    5CHTO  H150 1856   5.916   3.287   1.642  2.6534 -0.9961 -1.7972
    5CHTO   C80 1857   6.050   3.130   1.712  0.7909 -0.2571  0.1212
    5CHTO  H152 1858   6.056   3.066   1.803  2.1307  2.0537  1.7040
    5CHTO   O55 1859   6.020   3.030   1.608  0.9647  0.5661 -0.0237
    5CHTO  H134 1860   5.980   2.951   1.637  0.0317  1.2882  0.6798
    5CHTO   C84 1861   6.184   3.201   1.686 -0.3532  0.2278 -0.7966
    5CHTO  H156 1862   6.169   3.263   1.597  1.6229  0.5119 -0.9561
    5CHTO   N15 1863   6.309   3.105   1.675 -0.3964  0.4826 -0.6974
    5CHTO  H143 1864   6.267   3.008   1.660 -0.6841  1.0183 -3.7340
    5CHTO  H144 1865   6.363   3.132   1.586  0.8491 -1.5866 -0.5860
    5CHTO   C87 1866   6.207   3.306   1.800 -0.1547  0.2918  0.0878
    5CHTO  H159 1867   6.229   3.253   1.892 -1.3930  2.2740  1.5672
    5CHTO   O53 1868   6.079   3.389   1.810 -0.5371 -0.7437  0.7435
    5CHTO   C82 1869   5.962   3.322   1.852  0.5674 -0.0791 -0.3520
    5CHTO  H154 1870   5.973   3.264   1.944 -2.5783 -1.4674 -0.7940
    5CHTO   C89 1871   5.847   3.429   1.874  0.3332 -0.0309  1.1093
    5CHTO   O59 1872   5.900   3.532   1.958 -0.2740 -0.0602  0.1627
    5CHTO  H137 1873   5.863   3.512   2.041  0.8025 -2.3765  0.1259
    5CHTO   O45 1874   6.327   3.410   1.768  0.1935  0.3902 -0.5739
    5CHTO   C67 1875   6.417   3.434   1.881  0.3447 -0.9808 -1.1058
    5CHTO  H124 1876   6.388   3.380   1.971  1.8781 -1.3484 -0.8187
    5CHTO   C65 1877   6.565   3.399   1.846  0.3949  0.3028  0.0694
    5CHTO  H122 1878   6.570   3.416   1.739  0.6788  0.8311  0.1651
    5CHTO   O44 1879   6.580   3.261   1.864  0.1582  0.1199  0.2317
    5CHTO  H102 1880   6.628   3.233   1.789 -0.0547 -0.1260  0.1858
    5CHTO   C63 1881   6.683   3.495   1.909 -0.9574  0.0432  0.6125
    5CHTO  H120 1882   6.696   3.584   1.848  1.9380 -1.0914 -0.5217
    5CHTO   N11 1883   6.820   3.430   1.927 -0.3362  0.2544  0.4672
    5CHTO  H108 1884   6.895   3.488   1.878 -0.2840 -0.8191 -0.7542
    5CHTO  H109 1885   6.831   3.323   1.924  3.5901  0.6174 -1.1468
    5CHTO   C61 1886   6.625   3.555   2.043 -0.0991 -0.5460 -0.1210
    5CHTO  H118 1887   6.700   3.630   2.072  0.1690 -0.9911  0.3406
    5CHTO   O40 1888   6.502   3.628   2.029 -0.1000 -0.1634  0.0570
    5CHTO   C68 1889   6.410   3.590   1.917  0.6610  0.1318 -0.3891
    5CHTO  H125 1890   6.446   3.649   1.830  0.1835  0.8118 -0.1209
    5CHTO   C72 1891   6.267   3.639   1.951 -0.2435 -0.4233  0.3915
    5CHTO   O48 1892   6.264   3.780   1.972 -0.0101 -0.0438 -0.0704
    5CHTO  H105 1893   6.240   3.826   1.894  0.6257 -0.8923 -0.7700
    5CHTO   O38 1894   6.601   3.463   2.155 -0.5492  0.6320 -0.0780
    5CHTO   C55 1895   6.612   3.514   2.287 -0.2263 -0.8920  0.1184
    5CHTO  H112 1896   6.570   3.615   2.284  1.8836  0.1336  3.4663
    5CHTO   C56 1897   6.763   3.512   2.346 -0.5210  0.0938  0.2740
    5CHTO  H113 1898   6.779   3.406   2.373 -1.9704 -0.1956  0.0662
    5CHTO   O42 1899   6.863   3.547   2.249 -0.5931 -0.1052 -0.2151
    5CHTO  H100 1900   6.928   3.481   2.234  2.3946  2.4207  0.9601
    5CHTO   C57 1901   6.766   3.601   2.475  0.3169  0.1368 -0.3665
    5CHTO  H114 1902   6.723   3.692   2.432 -0.2116 -0.1664 -0.4743
    5CHTO   N10 1903   6.903   3.622   2.533 -0.0159  0.1827 -0.1958
    5CHTO  H106 1904   6.905   3.719   2.580  3.0193  0.3849 -0.6661
    5CHTO  H107 1905   6.970   3.635   2.449  0.7086 -0.4166  0.2824
    5CHTO   C58 1906   6.660   3.541   2.576  0.0770 -0.9432  0.3339
    5CHTO  H115 1907   6.697   3.444   2.615  0.9014  0.2090  2.4917
    5CHTO   O37 1908   6.536   3.519   2.522 -0.9753  0.3080  0.8030
    5CHTO   C59 1909   6.526   3.449   2.398  0.4599 -0.4057 -0.1862
    5CHTO  H116 1910   6.570   3.351   2.418 -0.1863 -0.5810  0.4128
    5CHTO   C70 1911   6.380   3.434   2.358 -0.7853  0.4677  0.3330
    5CHTO   O46 1912   6.312   3.359   2.462 -0.6388  0.3614 -0.3000
    5CHTO  H103 1913   6.265   3.290   2.420 -0.8158  0.6288 -0.5400
    5CHTO   O39 1914   6.657   3.644   2.713 -0.3564  0.3644 -0.2782
    5CHTO   C60 1915   6.534   3.711   2.734  0.3985  0.6965 -1.0600
    5CHTO  H117 1916   6.480   3.714   2.640 -0.9049  1.6723 -0.3059
    5CHTO   C62 1917   6.437   3.634   2.824 -0.6057 -0.4309  0.0129
    5CHTO  H119 1918   6.429   3.534   2.776  1.2435 -0.1755 -0.9002
    5CHTO   O43 1919   6.503   3.612   2.953 -0.0077  0.3230  0.2163
    5CHTO  H101 1920   6.454   3.551   3.004 -1.1192  1.0859  0.0897
    5CHTO   C66 1921   6.296   3.713   2.830 -0.8873  0.1387  0.2893
    5CHTO  H123 1922   6.261   3.738   2.730 -3.0018 -3.0861  0.1554
    5CHTO   N12 1923   6.194   3.625   2.896  0.0135 -0.8118  0.1921
    5CHTO  H110 1924   6.126   3.602   2.816 -1.8316 -0.4859  1.6331
    5CHTO  H111 1925   6.152   3.689   2.972 -0.7099 -0.0196 -0.8668
    5CHTO   C69 1926   6.324   3.856   2.889 -1.1446  0.9780  0.7588
    5CHTO  H126 1927   6.372   3.835   2.987  0.7200  0.2865 -0.2665
    5CHTO   O41 1928   6.420   3.924   2.800 -0.0101 -0.0569  0.1741
    5CHTO   C64 1929   6.550   3.851   2.787 -0.7642 -1.0988  0.6843
    5CHTO  H121 1930   6.602   3.857   2.885 -3.2803  1.3448  1.9591
    5CHTO   C71 1931   6.637   3.945   2.698 -0.3272 -0.4691  0.4749
    5CHTO   O47 1932   6.575   3.950   2.570  0.1883  0.2226 -0.0582
    5CHTO  H104 1933   6.484   3.971   2.578 -0.3909 -1.5454 -1.7034
    5CHTO   O34 1934   6.200   3.937   2.890  0.1112  0.0316 -0.3652
    5CHTO   C49 1935   6.122   4.052   2.794  0.5017 -0.4593 -0.5559
    5CHTO   H91 1936   6.101   4.140   2.854 -0.7514 -1.4611  0.5089
    5CHTO   C47 1937   5.984   3.990   2.745  0.1853 -0.3030 -0.0852
    5CHTO   H89 1938   5.917   3.997   2.833  0.8019 -0.2874  0.3892
    5CHTO   O33 1939   6.008   3.850   2.716  0.7087  0.3747 -0.4961
    5CHTO   H70 1940   5.965   3.800   2.783 -0.2266  0.4158 -1.0516
    5CHTO   C45 1941   5.928   4.056   2.610 -0.0628 -0.5251  0.2200
    5CHTO   H87 1942   5.946   3.984   2.528  0.4463 -2.1242  1.7062
    5CHTO    N8 1943   5.779   4.072   2.610 -0.1521 -0.1372  0.3615
    5CHTO   H75 1944   5.753   4.151   2.541 -1.1310  0.4741  1.4026
    5CHTO   H76 1945   5.741   4.098   2.708  0.1732 -0.7362  0.6433
    5CHTO   C43 1946   5.999   4.195   2.577 -0.5714  0.2522  0.1995
    5CHTO   H85 1947   5.964   4.228   2.479 -1.0670 -3.5976 -1.0233
    5CHTO   O29 1948   6.139   4.165   2.570  0.0255  0.0472 -0.0511
    5CHTO   C50 1949   6.216   4.107   2.676 -0.0376  0.6155  0.2781
    5CHTO   H92 1950   6.285   4.030   2.635 -0.4268 -1.7008  3.7549
    5CHTO   C54 1951   6.322   4.214   2.720 -0.0510  0.2281 -0.2588
    5CHTO   O36 1952   6.400   4.255   2.601 -0.1392  0.1049  0.0745
    5CHTO   H72 1953   6.482   4.286   2.634 -0.8948  2.8207 -0.4474
    5CHTO   O27 1954   5.971   4.301   2.671  0.1475 -0.6052  0.2404
    5CHTO   C37 1955   5.865   4.382   2.724 -0.0324  0.2269  0.1558
    5CHTO   H79 1956   5.772   4.324   2.736 -1.1562  1.3656 -2.5727
    5CHTO   C38 1957   5.921   4.428   2.858 -0.4694 -0.1650  0.5961
    5CHTO   H80 1958   6.016   4.481   2.841 -1.8880  2.2412 -0.0990
    5CHTO   O31 1959   5.938   4.317   2.949  0.2604 -0.2062 -0.2922
    5CHTO   H68 1960   6.004   4.259   2.917  0.7735 -0.5793  1.3793
    5CHTO   C39 1961   5.831   4.535   2.928  0.6187 -0.6667 -0.1488
    5CHTO   H81 1962   5.745   4.482   2.969  0.7194 -0.4321  0.3781
    5CHTO    N7 1963   5.901   4.611   3.043 -0.0351 -0.1196 -0.2142
    5CHTO   H73 1964   5.914   4.536   3.119  2.5461  0.0290 -0.4825
    5CHTO   H74 1965   6.000   4.638   3.011 -1.1221  2.7697 -1.2860
    5CHTO   C40 1966   5.776   4.644   2.826  0.2046 -0.5254  0.1610
    5CHTO   H82 1967   5.854   4.713   2.795 -0.8058 -1.0343 -3.8952
    5CHTO   O26 1968   5.728   4.580   2.706  0.1618 -0.2165 -0.3790
    5CHTO   C41 1969   5.833   4.503   2.640  0.0565 -0.5193  0.1385
    5CHTO   H83 1970   5.925   4.563   2.634 -0.0591 -0.4606 -1.0321
    5CHTO   C52 1971   5.779   4.473   2.497  0.5985  0.9386  0.2292
    5CHTO   O35 1972   5.662   4.381   2.509 -0.3000  0.0430 -0.0659
    5CHTO   H71 1973   5.634   4.364   2.421 -0.1757  3.4386 -0.8543
    5CHTO   O28 1974   5.660   4.715   2.882  0.1368  0.1366  0.3108
    5CHTO   C42 1975   5.545   4.652   2.952  0.1893 -0.7490 -0.0311
    5CHTO   H84 1976   5.465   4.720   2.923  0.3021  0.0523  1.4831
    5CHTO   C44 1977   5.551   4.665   3.111  0.0294 -0.3577 -0.3118
    5CHTO   H86 1978   5.650   4.634   3.146  0.2762  1.3592  0.5527
    5CHTO   O32 1979   5.535   4.806   3.140 -0.3089  0.4075  0.2471
    5CHTO   H69 1980   5.591   4.869   3.100  0.1075  0.0976  0.3377
    5CHTO   C48 1981   5.452   4.565   3.191  0.4362 -0.9827  0.3467
    5CHTO   H90 1982   5.353   4.608   3.184  0.9797 -0.1231 -2.3755
    5CHTO    N9 1983   5.481   4.576   3.340 -0.1650  0.0800  0.6115
    5CHTO   H77 1984   5.467   4.476   3.380  0.5615 -0.6975 -1.0224
    5CHTO   H78 1985   5.413   4.643   3.390 -1.4177  0.4094 -1.4873
    5CHTO   C51 1986   5.462   4.422   3.123  0.0104  0.1089  0.4384
    5CHTO   H93 1987   5.568   4.397   3.121  0.6655  2.7987 -1.7049
    5CHTO   O30 1988   5.407   4.445   2.993 -0.9680 -0.8834  0.1667
    5CHTO   C46 1989   5.500   4.508   2.903 -0.3181  0.8671 -0.2414
    5CHTO   H88 1990   5.586   4.440   2.893  0.9817  2.3891  0.3850
    5CHTO   C53 1991   5.425   4.508   2.771 -0.0562  0.3649 -0.6302
    5CHTO   O72 1992   5.360   4.378   2.750 -0.6149 -0.1599  0.0211
    5CHTO  H199 1993   5.299   4.364   2.820  0.4547 -1.6665  0.6836
    5CHTO   O22 1994   5.367   4.323   3.173  0.2506  0.2476  0.1514
    5CHTO   C31 1995   5.400   4.171   3.166  0.2411  0.1915  1.0494
    5CHTO   H59 1996   5.308   4.122   3.203 -0.8383  1.7116  0.4210
    5CHTO   C29 1997   5.422   4.126   3.018  0.2134 -0.0026  0.1433
    5CHTO   H57 1998   5.491   4.197   2.970  1.8833 -2.3377 -1.0135
    5CHTO   O21 1999   5.295   4.141   2.951 -0.1261 -0.6421 -0.3226
    5CHTO   H37 2000   5.241   4.091   3.009  0.7133 -0.7658  0.3632
    5CHTO   C27 2001   5.483   3.982   3.008  0.3805  0.3485  0.8904
    5CHTO   H55 2002   5.404   3.909   3.030  1.0480 -1.5491 -2.6316
    5CHTO    N5 2003   5.527   3.960   2.864 -0.2620  0.7869  0.4021
    5CHTO   H43 2004   5.453   3.901   2.813  1.0192  0.5548 -1.2145
    5CHTO   H44 2005   5.629   3.924   2.862 -1.0174 -1.3502 -1.0288
    5CHTO   C25 2006   5.591   3.958   3.116  0.4642  0.5213 -0.3229
    5CHTO   H53 2007   5.679   4.024   3.110  1.0910 -0.4171 -2.0668
    5CHTO   O17 2008   5.541   3.986   3.247 -0.5674 -0.3223 -0.0165
    5CHTO   C32 2009   5.511   4.127   3.262 -0.1912 -0.2130  0.1553
    5CHTO   H60 2010   5.601   4.186   3.246 -0.9562  0.9204 -0.0403
    5CHTO   C36 2011   5.452   4.155   3.406  0.3123  0.0944 -0.5417
    5CHTO   O25 2012   5.485   4.275   3.470  0.3698 -0.4347  0.2403
    5CHTO   H40 2013   5.461   4.280   3.560  1.5415 -2.8080  0.7210
    5CHTO   O15 2014   5.648   3.796   3.110 -0.1754 -0.1731  0.0854
    5CHTO   C19 2015   5.752   3.725   3.180 -0.6090  0.7134 -0.4522
    5CHTO   H47 2016   5.759   3.791   3.267 -2.8878 -1.1646  1.2343
    5CHTO   C20 2017   5.705   3.583   3.220 -0.0620 -0.4073 -0.1720
    5CHTO   H48 2018   5.660   3.532   3.134 -0.6584 -0.5135  0.1946
    5CHTO   O19 2019   5.610   3.605   3.324 -0.2354 -0.1205 -0.0262
    5CHTO   H35 2020   5.554   3.532   3.338  0.6179 -0.2157  3.1482
    5CHTO   C21 2021   5.819   3.480   3.271 -0.0697  0.1386  0.6397
    5CHTO   H49 2022   5.836   3.493   3.378  0.5473  2.4355  0.3012
    5CHTO    N4 2023   5.779   3.340   3.262  0.0311  1.0569 -0.0392
    5CHTO   H41 2024   5.783   3.294   3.359  1.7012  1.6958  0.1990
    5CHTO   H42 2025   5.695   3.299   3.207  0.2368 -1.0723  1.1966
    5CHTO   C22 2026   5.954   3.512   3.205 -0.7308 -0.3820 -0.2507
    5CHTO   H50 2027   5.954   3.481   3.101  1.8930 -0.2737 -0.3393
    5CHTO   O14 2028   5.979   3.655   3.202  0.1499  0.0703  0.1593
    5CHTO   C23 2029   5.893   3.721   3.118 -0.4439 -0.4003  0.4379
    5CHTO   H51 2030   5.896   3.666   3.022 -0.4706  0.5573 -0.1124
    5CHTO   C34 2031   5.953   3.854   3.077  0.7347 -0.1327  0.0569
    5CHTO   O23 2032   5.984   3.930   3.194 -0.0293 -0.0238  0.0250
    5CHTO   H38 2033   5.908   3.976   3.225  1.0242  1.6048  0.2017
    5CHTO   O16 2034   6.060   3.468   3.291  0.3912 -0.3201 -0.2461
    5CHTO   C24 2035   6.207   3.406   3.216  0.3158  0.3084 -0.1697
    5CHTO   H52 2036   6.202   3.405   3.107  0.1259 -0.3422 -0.1582
    5CHTO   C26 2037   6.214   3.258   3.261  0.4371 -0.4897  0.0350
    5CHTO   H54 2038   6.204   3.250   3.372 -0.4536 -0.9283 -0.0720
    5CHTO   O20 2039   6.104   3.194   3.205  0.5125  0.0630  0.4042
    5CHTO   H36 2040   6.114   3.101   3.196  2.3634  0.5271 -2.6593
    5CHTO   C30 2041   6.342   3.186   3.223 -0.1126  0.1820 -0.2800
    5CHTO   H58 2042   6.328   3.143   3.123 -0.0743 -0.5692  0.0338
    5CHTO    N6 2043   6.360   3.061   3.296 -0.8563  0.2442  0.2911
    5CHTO   H45 2044   6.376   3.086   3.400  0.5398  0.6437 -0.0077
    5CHTO   H46 2045   6.269   3.003   3.288 -0.3593 -0.2631 -1.8290
    5CHTO   C33 2046   6.472   3.273   3.237  0.3987  1.1362 -0.1738
    5CHTO   H61 2047   6.505   3.284   3.342  2.0070  1.3648 -0.6890
    5CHTO   O18 2048   6.443   3.405   3.182 -0.0718 -0.1861  0.2897
    5CHTO   C28 2049   6.335   3.474   3.254 -0.3457  0.2103  0.0333
    5CHTO   H56 2050   6.353   3.457   3.360  2.3556 -0.8756 -0.5711
    5CHTO   C35 2051   6.324   3.621   3.233 -0.4223 -0.4192  0.1998
    5CHTO   O24 2052   6.235   3.700   3.313  0.0364 -0.2423  0.3825
    5CHTO   H39 2053   6.149   3.719   3.281  0.0427 -2.5893 -1.1800
    5CHTO    O9 2054   6.587   3.215   3.177  0.4010  0.3340 -0.0642
    5CHTO   C13 2055   6.589   3.152   3.021  0.0922  0.3031  0.2957
    5CHTO   H26 2056   6.490   3.122   2.979 -0.6218  2.7699  0.1825
    5CHTO   C11 2057   6.696   3.027   3.018  0.0233 -0.5497 -0.5324
    5CHTO   H24 2058   6.650   2.946   3.077  0.7374 -0.9737 -0.5596
    5CHTO    O8 2059   6.815   3.077   3.075 -0.4616 -0.3068 -0.3383
    5CHTO    H3 2060   6.833   3.167   3.054 -1.5630  0.0824  0.3573
    5CHTO    C9 2061   6.706   2.981   2.868 -0.7646  0.8657  0.7742
    5CHTO   H22 2062   6.605   2.946   2.841 -0.0308 -0.1608 -0.6739
    5CHTO    N2 2063   6.797   2.857   2.847  0.6975 -0.0812  0.6410
    5CHTO   H10 2064   6.881   2.858   2.915 -0.2483  0.5220  1.8314
    5CHTO   H11 2065   6.743   2.766   2.865 -0.5105  0.1356 -1.7179
    5CHTO    C7 2066   6.747   3.090   2.768  0.5475 -0.3983  0.1996
    5CHTO   H20 2067   6.718   3.044   2.672 -0.7808 -0.1757  0.4764
    5CHTO    O4 2068   6.665   3.208   2.785 -0.0059  0.3177 -0.4185
    5CHTO   C14 2069   6.633   3.261   2.917 -1.0718  0.0372 -0.2586
    5CHTO   H27 2070   6.550   3.328   2.886 -1.8298  0.5718  2.7736
    5CHTO   C18 2071   6.749   3.358   2.974  0.0351  0.9441 -0.1320
    5CHTO   O13 2072   6.793   3.460   2.884  0.1446  0.1282  0.7549
    5CHTO    H7 2073   6.770   3.442   2.794 -0.7743  1.6614  0.6619
    5CHTO    O2 2074   6.902   3.138   2.773 -0.2714  0.3487 -0.1180
    5CHTO    C1 2075   6.958   3.226   2.672  0.5997  0.5671  0.2253
    5CHTO   H14 2076   6.898   3.319   2.667 -0.5006 -0.1948 -1.4007
    5CHTO    C2 2077   6.947   3.161   2.527  0.7192  0.4841 -0.0210
    5CHTO   H15 2078   6.977   3.056   2.537 -2.4437 -0.4323  0.6431
    5CHTO    O6 2079   6.807   3.163   2.484  0.0152 -0.1659 -0.0915
    5CHTO    H1 2080   6.772   3.083   2.517  2.2882 -0.7147  1.1199
    5CHTO    C3 2081   7.036   3.244   2.418  0.0238  0.1713 -0.2426
    5CHTO   H16 2082   6.991   3.343   2.402  1.4565  0.6142 -1.6307
    5CHTO    N1 2083   7.040   3.189   2.279  0.2331  0.0464  0.4228
    5CHTO    H8 2084   6.979   3.100   2.276 -0.0879  0.2798 -0.1718
    5CHTO    H9 2085   7.140   3.162   2.249  0.3145  2.1217 -1.3060
    5CHTO    C4 2086   7.169   3.269   2.482 -0.0586 -0.0530 -0.4396
    5CHTO   H17 2087   7.215   3.172   2.502 -1.3539 -0.1447  2.3201
    5CHTO    O1 2088   7.147   3.346   2.600 -0.2597 -0.1998  0.0439
    5CHTO    C5 2089   7.102   3.267   2.710  0.8842 -0.1779  0.1458
    5CHTO   H18 2090   7.162   3.177   2.718  1.3090 -0.0225 -1.2849
    5CHTO   C16 2091   7.115   3.341   2.844 -0.3769 -1.1629  0.1415
    5CHTO   O11 2092   7.108   3.245   2.952 -0.1655 -0.4291 -0.1892
    5CHTO    H5 2093   7.022   3.239   2.989  0.0358  0.7981  0.5226
    5CHTO    O3 2094   7.244   3.352   2.392  0.3229  0.1476  0.3533
    5CHTO    C6 2095   7.386   3.360   2.416  0.2307  0.5241 -0.2528
    5CHTO   H19 2096   7.414   3.333   2.518 -0.4756 -1.9238 -0.6811
    5CHTO    C8 2097   7.469   3.257   2.342  0.7727 -0.4009  0.5413
    5CHTO   H21 2098   7.439   3.252   2.237  1.4097 -4.3862  0.5021
    5CHTO    O7 2099   7.444   3.123   2.395  0.6114  0.4790  0.4317
    5CHTO    H2 2100   7.357   3.101   2.370  0.7580 -0.3407  0.6155
    5CHTO   C12 2101   7.627   3.296   2.339  0.6198 -0.0665  0.2300
    5CHTO   H25 2102   7.674   3.272   2.436 -0.0735  1.3441  0.9341
    5CHTO    N3 2103   7.690   3.204   2.234 -0.6594 -0.1970 -0.0337
    5CHTO   H12 2104   7.736   3.262   2.156  0.6779 -0.7872  0.3101
    5CHTO   H13 2105   7.760   3.133   2.276  0.3200 -0.7812 -2.5668
    5CHTO   C15 2106   7.640   3.449   2.304  0.3168 -0.4707  0.2160
    5CHTO   H28 2107   7.609   3.474   2.203  0.9009  0.1090  0.1810
    5CHTO   O10 2108   7.789   3.509   2.319  0.8257 -0.1119  0.0783
    5CHTO    H4 2109   7.852   3.464   2.266  0.7738  0.4021 -0.4193
    5CHTO    O5 2110   7.567   3.522   2.408 -0.1939 -0.1319  0.3457
    5CHTO   C10 2111   7.425   3.507   2.395 -0.3958 -0.7518  0.5444
    5CHTO   H23 2112   7.389   3.554   2.303 -0.3462 -0.8338  0.4828
    5CHTO   C17 2113   7.367   3.591   2.512 -0.2624  0.6107  0.1038
    5CHTO   O12 2114   7.247   3.647   2.459 -0.3251 -0.0274 -0.7347
    5CHTO    H6 2115   7.182   3.599   2.507 -0.2213  1.8463  1.4006
    6CHTO  H203 2116   4.911   5.170   0.035  0.1236 -1.3897  0.1694
    6CHTO   O82 2117   4.915   5.231  -0.037 -0.4881 -0.7082  0.7139
    6CHTO  C123 2118   4.969   5.359  -0.005 -0.4398 -0.2476  0.7758
    6CHTO  H227 2119   4.952   5.433  -0.084  0.7314 -0.4323  0.3321
    6CHTO   O77 2120   4.879   5.404   0.103  0.1418  0.5574  0.3018
    6CHTO  C118 2121   4.897   5.541   0.153 -0.1467  0.7853  0.5548
    6CHTO  H222 2122   4.882   5.612   0.070  0.5216  0.9236  0.5516
    6CHTO  C125 2123   4.790   5.568   0.257 -0.0356 -0.3436  0.0490
    6CHTO   O84 2124   4.663   5.506   0.224 -0.0835 -0.2036 -0.2383
    6CHTO  H205 2125   4.606   5.573   0.255  0.3607 -0.5964  1.4734
    6CHTO  C114 2126   5.037   5.544   0.219 -1.2046 -0.3322  0.6463
    6CHTO  H218 2127   5.045   5.465   0.294 -1.1648  0.5144  1.5499
    6CHTO  C116 2128   5.146   5.501   0.113  0.0002 -0.3099 -0.7204
    6CHTO  H220 2129   5.143   5.576   0.031  0.8886  1.5852  0.9550
    6CHTO   O79 2130   5.275   5.509   0.177  0.4071  0.4434  0.1000
    6CHTO  H201 2131   5.287   5.585   0.230  0.0237  0.2773  0.4307
    6CHTO  C120 2132   5.113   5.360   0.052  0.9834 -0.1286  0.0878
    6CHTO  H224 2133   5.129   5.289   0.137  3.1824  2.0073  1.5248
    6CHTO   N21 2134   5.206   5.330  -0.058 -0.1616 -0.4604 -0.7216
    6CHTO  H211 2135   5.249   5.423  -0.093 -0.0907 -0.1138  0.2539
    6CHTO  H212 2136   5.292   5.266  -0.040  0.6712  0.3444 -1.7657
    6CHTO   O75 2137   5.077   5.672   0.275  0.6440  0.2026 -0.0409
    6CHTO  C112 2138   5.097   5.665   0.443  0.5868 -0.1830  0.5906
    6CHTO  H216 2139   5.139   5.565   0.461  0.4737 -0.6246 -1.4279
    6CHTO   O73 2140   4.967   5.680   0.504 -0.4974  0.0718 -0.6303
    6CHTO  C113 2141   4.959   5.685   0.651 -0.8037 -0.3932  1.0386
    6CHTO  H217 2142   4.995   5.587   0.688 -0.8102 -0.4200  0.9735
    6CHTO  C124 2143   4.809   5.701   0.692 -0.6192 -0.3328 -0.4787
    6CHTO   O83 2144   4.728   5.587   0.663  0.0605 -0.2586 -0.1761
    6CHTO  H204 2145   4.643   5.620   0.640  0.4906  1.8030  1.0990
    6CHTO  C109 2146   5.044   5.801   0.706 -0.0891 -0.3983  0.1883
    6CHTO  H213 2147   5.001   5.894   0.666 -1.9318 -1.6869 -0.8918
    6CHTO  C110 2148   5.189   5.788   0.651 -0.1031 -0.6462 -0.4006
    6CHTO  H214 2149   5.238   5.696   0.684  2.4847  0.1805 -1.7471
    6CHTO   O78 2150   5.272   5.899   0.708  0.0885 -0.1496  0.2955
    6CHTO  H200 2151   5.362   5.885   0.687 -0.1424  0.2938 -1.0446
    6CHTO  C111 2152   5.189   5.783   0.494 -0.0094  0.3212 -0.3515
    6CHTO  H215 2153   5.157   5.882   0.458  0.8308  0.4504 -0.7485
    6CHTO   N19 2154   5.328   5.772   0.441 -0.6316 -0.1336 -0.5172
    6CHTO  H207 2155   5.331   5.776   0.333 -0.9004  0.1897 -0.5134
    6CHTO  H208 2156   5.390   5.850   0.482 -0.3913 -0.2767 -0.6069
    6CHTO   O74 2157   5.042   5.798   0.852  0.0614 -0.3269 -0.3204
    6CHTO  C115 2158   5.052   5.934   0.938 -0.6232 -0.2660 -0.5491
    6CHTO  H219 2159   5.119   6.005   0.890 -0.2910 -0.6809 -0.6957
    6CHTO   O76 2160   4.921   6.007   0.947  0.5467  0.4684  0.1481
    6CHTO  C122 2161   4.817   5.924   0.998  0.7278  0.1469 -0.3272
    6CHTO  H226 2162   4.783   5.861   0.915  0.4724  1.7950 -1.5008
    6CHTO  C126 2163   4.694   6.009   1.038  0.1350  0.3758 -0.0952
    6CHTO   O85 2164   4.582   5.919   1.059 -0.5765 -0.6613 -0.4588
    6CHTO  H206 2165   4.512   5.946   1.004 -1.1000 -0.3827  0.3250
    6CHTO  C121 2166   4.866   5.834   1.127  0.0044  0.4571  0.1025
    6CHTO  H225 2167   4.789   5.837   1.206  0.4404 -1.6854  0.6255
    6CHTO   O81 2168   4.885   5.697   1.094 -0.4789  0.5483  0.3417
    6CHTO  H202 2169   4.810   5.652   1.129 -0.6255 -0.2894 -1.0438
    6CHTO  C119 2170   4.999   5.893   1.187 -0.0177  0.0589 -0.0693
    6CHTO  H223 2171   4.984   5.998   1.212  2.7244  0.9191 -1.7692
    6CHTO  C117 2172   5.111   5.895   1.081 -0.2538 -0.3871 -0.1313
    6CHTO  H221 2173   5.159   5.801   1.055  0.1235 -0.0983 -0.4780
    6CHTO   N20 2174   5.223   5.991   1.123 -0.6298  0.2969 -0.4171
    6CHTO  H209 2175   5.310   5.939   1.158 -0.8328  1.1725  1.4882
    6CHTO  H210 2176   5.193   6.045   1.212 -1.7947  0.3252 -0.8142
    6CHTO   O80 2177   5.048   5.828   1.331  0.0534  0.5008  0.2293
    6CHTO  C103 2178   4.949   5.827   1.457  0.3287  0.4197  0.9752
    6CHTO  H190 2179   4.998   5.814   1.553  1.0368  2.0129  0.8519
    6CHTO  C101 2180   4.854   5.947   1.470 -0.6081  0.0035  0.2413
    6CHTO  H188 2181   4.813   5.986   1.377  0.8015  0.8995 -0.0152
    6CHTO   O68 2182   4.950   6.063   1.528 -0.3911 -0.4385  0.2483
    6CHTO  H168 2183   4.996   6.040   1.607 -0.2552  2.7634  1.1672
    6CHTO   C99 2184   4.736   5.931   1.575  0.2663 -0.1940  0.0269
    6CHTO  H186 2185   4.793   5.918   1.668  2.1014  0.6183 -0.9656
    6CHTO   N17 2186   4.631   6.039   1.585 -0.4583  0.5083 -0.5716
    6CHTO  H174 2187   4.543   6.019   1.525 -1.1947  1.7224  0.0852
    6CHTO  H175 2188   4.674   6.134   1.556  1.8764  0.0712  1.3102
    6CHTO   C97 2189   4.667   5.791   1.558 -0.1676  0.8667 -0.5020
    6CHTO  H184 2190   4.608   5.789   1.466 -0.5865 -1.8946 -0.2099
    6CHTO   O64 2191   4.771   5.691   1.559 -0.3137 -0.1966  0.7851
    6CHTO  C104 2192   4.856   5.699   1.445 -0.7704 -0.1745 -0.1857
    6CHTO  H191 2193   4.798   5.703   1.353  0.3307 -0.2837 -0.8955
    6CHTO  C108 2194   4.944   5.575   1.432  0.6910 -0.2851 -0.2599
    6CHTO   O71 2195   4.869   5.461   1.462 -0.2033 -0.1019  0.2842
    6CHTO  H171 2196   4.911   5.385   1.426  0.7211 -0.4866  2.1202
    6CHTO   O62 2197   4.575   5.764   1.665  0.5483 -0.2020 -0.7986
    6CHTO   C91 2198   4.461   5.677   1.654 -0.0604  0.2331  0.7325
    6CHTO  H178 2199   4.413   5.671   1.751 -1.4986  1.9282  0.1553
    6CHTO   C92 2200   4.524   5.535   1.639  0.2663  0.9661  0.0155
    6CHTO  H179 2201   4.598   5.528   1.558  1.3155  0.8806  0.9678
    6CHTO   O66 2202   4.602   5.504   1.757 -0.2789 -0.0799 -0.4871
    6CHTO  H166 2203   4.562   5.509   1.842 -0.1737 -2.1414 -0.3017
    6CHTO   C93 2204   4.412   5.432   1.604 -0.1105 -0.3836  0.2338
    6CHTO  H180 2205   4.331   5.438   1.679 -0.9371  0.6854 -0.7275
    6CHTO   N16 2206   4.462   5.291   1.601  0.2545 -0.1636 -0.6826
    6CHTO  H172 2207   4.509   5.271   1.506  3.3159 -1.2310  0.9916
    6CHTO  H173 2208   4.386   5.216   1.612  2.1290 -1.5805  3.5080
    6CHTO   C94 2209   4.353   5.472   1.468  0.4247 -0.8299  0.4734
    6CHTO  H181 2210   4.433   5.486   1.395 -0.1318 -1.9506 -0.3708
    6CHTO   O61 2211   4.288   5.600   1.489  0.2208 -0.1088  0.3616
    6CHTO   C95 2212   4.361   5.713   1.530 -0.0527  0.4774  0.8086
    6CHTO  H182 2213   4.413   5.756   1.443  1.1107  0.2169  1.3620
    6CHTO  C106 2214   4.262   5.824   1.561 -0.1509 -0.0751  0.7355
    6CHTO   O69 2215   4.184   5.793   1.673 -0.0230  0.0912 -0.6035
    6CHTO  H169 2216   4.111   5.744   1.642  1.4995 -1.8641 -1.1858
    6CHTO   O63 2217   4.240   5.367   1.405 -0.4253  0.8460  0.1070
    6CHTO   C96 2218   4.248   5.367   1.241 -0.3157 -0.4663 -0.6374
    6CHTO  H183 2219   4.353   5.380   1.218  0.0215 -1.8053  0.0703
    6CHTO   C98 2220   4.179   5.480   1.160 -0.1595 -1.0960  0.0967
    6CHTO  H185 2221   4.075   5.481   1.196  0.1899 -0.6125  1.1004
    6CHTO   O67 2222   4.235   5.608   1.200 -0.0297  0.2704 -0.2469
    6CHTO  H167 2223   4.177   5.674   1.167 -0.5931 -0.1752 -0.1438
    6CHTO  C102 2224   4.183   5.461   1.003  0.1710 -0.7018 -0.9930
    6CHTO  H189 2225   4.285   5.492   0.974  0.9483 -1.8401  0.4296
    6CHTO   N18 2226   4.092   5.549   0.928  0.3310 -0.0265  0.7048
    6CHTO  H176 2227   4.136   5.599   0.843 -3.3684  2.1459 -0.0482
    6CHTO  H177 2228   4.037   5.619   0.989 -0.2367  0.4200 -0.3009
    6CHTO  C105 2229   4.172   5.307   0.965 -0.4429  0.6905  0.1356
    6CHTO  H192 2230   4.092   5.290   0.893 -0.6357  1.1149  0.2459
    6CHTO   O65 2231   4.125   5.224   1.071 -0.5874  0.6116 -0.0421
    6CHTO  C100 2232   4.195   5.227   1.200 -0.2532  0.5457  0.5723
    6CHTO  H187 2233   4.118   5.197   1.273  1.6763 -4.8721  0.5635
    6CHTO  C107 2234   4.304   5.118   1.208  0.1236 -0.1962  0.3679
    6CHTO   O70 2235   4.297   5.060   1.339 -0.1654 -0.2666  0.3443
    6CHTO  H170 2236   4.232   4.992   1.338 -1.2854  0.6345  4.0344
    6CHTO   O57 2237   4.318   5.273   0.921  0.3748  0.1238  0.0765
    6CHTO   C85 2238   4.332   5.185   0.806  0.4518  0.2001 -0.1367
    6CHTO  H157 2239   4.225   5.170   0.778  0.1136 -0.0401  1.2251
    6CHTO   C83 2240   4.387   5.049   0.838  0.4821  0.8100 -1.2842
    6CHTO  H155 2241   4.319   4.999   0.907  0.8859  2.4858  0.3484
    6CHTO   O56 2242   4.514   5.054   0.912 -0.5944  0.1165 -0.1312
    6CHTO  H135 2243   4.542   4.967   0.932 -1.7738 -0.3522 -0.4751
    6CHTO   C81 2244   4.384   4.967   0.699 -0.1234 -0.5166 -0.4040
    6CHTO  H153 2245   4.282   4.976   0.659  0.2741 -1.2753 -1.6274
    6CHTO   N14 2246   4.413   4.824   0.720  0.2172 -0.1497  0.1258
    6CHTO  H141 2247   4.329   4.771   0.680  0.1714 -0.0197  0.0496
    6CHTO  H142 2248   4.431   4.797   0.822 -1.1909  1.8185  0.9291
    6CHTO   C79 2249   4.478   5.043   0.601  0.0683 -0.0238  0.0023
    6CHTO  H151 2250   4.480   4.986   0.508  0.2127 -1.3355  0.8008
    6CHTO   O52 2251   4.423   5.166   0.563 -0.4126 -0.0065  0.3746
    6CHTO   C86 2252   4.406   5.250   0.684 -0.7116 -0.3584 -0.1112
    6CHTO  H158 2253   4.513   5.264   0.710 -0.5827 -2.4042  0.5743
    6CHTO   C90 2254   4.358   5.390   0.652 -0.0153  0.7078  0.7533
    6CHTO   O60 2255   4.456   5.453   0.569 -0.1146  0.3521 -0.7606
    6CHTO  H138 2256   4.433   5.428   0.481 -0.4412 -1.3298 -0.2018
    6CHTO   O50 2257   4.612   5.054   0.647 -0.2333  0.7475  0.1357
    6CHTO   C73 2258   4.740   5.010   0.591 -0.8886  0.5309  0.3416
    6CHTO  H145 2259   4.743   5.003   0.481  0.7102 -0.2213  0.4222
    6CHTO   C74 2260   4.766   4.873   0.656 -0.2275  0.2906 -0.1239
    6CHTO  H146 2261   4.696   4.792   0.630 -0.4329 -0.6083  3.0096
    6CHTO   O54 2262   4.882   4.813   0.593  0.1564 -0.0645 -0.9169
    6CHTO  H133 2263   4.883   4.721   0.613  3.0767  0.3030  1.0017
    6CHTO   C75 2264   4.784   4.884   0.813  1.1110  0.1666  0.4874
    6CHTO  H147 2265   4.692   4.917   0.863  1.5708  1.9939  0.1385
    6CHTO   N13 2266   4.816   4.761   0.893 -0.2818 -0.8279 -0.2763
    6CHTO  H139 2267   4.853   4.785   0.992  1.3407 -0.2441 -1.0120
    6CHTO  H140 2268   4.728   4.699   0.893 -0.7686 -0.1574  0.9965
    6CHTO   C76 2269   4.889   5.000   0.846 -0.3622  0.6897 -0.3513
    6CHTO  H148 2270   4.991   4.980   0.812 -0.9163  0.0821 -1.6801
    6CHTO   O49 2271   4.850   5.117   0.782  0.1328  0.0687  0.0120
    6CHTO   C77 2272   4.851   5.107   0.639 -0.1923 -0.4660 -0.1410
    6CHTO  H149 2273   4.946   5.065   0.606  1.3043  0.7291  2.4425
    6CHTO   C88 2274   4.840   5.247   0.585 -0.3162  0.2431 -0.6837
    6CHTO   O58 2275   4.875   5.259   0.445 -0.1933 -0.2576 -0.1329
    6CHTO  H136 2276   4.950   5.314   0.440  0.0957 -0.5997  0.4829
    6CHTO   O51 2277   4.889   5.048   0.996  0.0436 -0.6866  0.1450
    6CHTO   C78 2278   5.006   5.159   1.060  0.5721  0.0046  0.1722
    6CHTO  H150 2279   4.984   5.188   1.164  0.4412  1.2827 -0.2137
    6CHTO   C80 2280   5.035   5.287   0.981  0.4798  0.0623 -0.1685
    6CHTO  H152 2281   5.048   5.254   0.876  0.6259  0.5971 -0.3183
    6CHTO   O55 2282   4.914   5.362   0.983  0.2990  0.0705 -0.4680
    6CHTO  H134 2283   4.847   5.319   0.932 -2.1780  0.5718  2.2053
    6CHTO   C84 2284   5.150   5.382   1.047  0.5372  0.8180  0.3196
    6CHTO  H156 2285   5.113   5.421   1.142 -0.6756  0.0506  0.1650
    6CHTO   N15 2286   5.166   5.510   0.968  0.5244 -0.4105  0.1458
    6CHTO  H143 2287   5.213   5.497   0.873 -3.7268  0.0648 -2.1530
    6CHTO  H144 2288   5.223   5.581   1.023 -1.1470  1.8069 -0.9119
    6CHTO   C87 2289   5.276   5.295   1.064  0.3292 -0.6276  0.1174
    6CHTO  H159 2290   5.310   5.261   0.966  1.6453  0.6534  0.1120
    6CHTO   O53 2291   5.236   5.156   1.146 -0.2654 -0.1173 -0.2330
    6CHTO   C82 2292   5.138   5.076   1.071 -0.0785 -1.0269  0.5914
    6CHTO  H154 2293   5.175   5.056   0.971 -1.2071 -0.8450  0.1258
    6CHTO   C89 2294   5.111   4.941   1.132  0.4314 -0.0373 -0.4762
    6CHTO   O59 2295   5.004   4.941   1.233 -0.5235 -0.2549  0.2562
    6CHTO  H137 2296   5.023   4.881   1.302 -1.6535 -1.1956 -0.2270
    6CHTO   O45 2297   5.373   5.361   1.136  0.5630  0.1711 -0.4594
    6CHTO   C67 2298   5.506   5.361   1.077  0.1445  0.1577 -0.2279
    6CHTO  H124 2299   5.523   5.276   1.010 -1.1236 -1.4268  1.4185
    6CHTO   C65 2300   5.535   5.492   0.991 -0.1338  0.5292 -0.7506
    6CHTO  H122 2301   5.448   5.508   0.927  0.0737  3.0051 -0.4813
    6CHTO   O44 2302   5.660   5.476   0.919 -0.5212  0.1808  0.2929
    6CHTO  H102 2303   5.668   5.550   0.863  1.7151 -0.3415 -0.1171
    6CHTO   C63 2304   5.535   5.617   1.090  0.5869 -0.2200 -0.3204
    6CHTO  H120 2305   5.437   5.625   1.137  0.9632 -2.4009  0.9096
    6CHTO   N11 2306   5.533   5.757   1.027 -1.0562  0.4421 -0.4039
    6CHTO  H108 2307   5.603   5.763   0.947  0.0258 -1.8858  0.3175
    6CHTO  H109 2308   5.541   5.838   1.097  2.4282  0.3612 -0.6533
    6CHTO   C61 2309   5.645   5.601   1.196  0.3689  0.2535  0.3958
    6CHTO  H118 2310   5.636   5.682   1.271  0.1479  0.1863  0.4413
    6CHTO   O40 2311   5.632   5.468   1.271  0.1835 -0.9091  0.3809
    6CHTO   C68 2312   5.605   5.342   1.199  0.5975 -0.2516  0.3992
    6CHTO  H125 2313   5.551   5.273   1.267  2.2036 -0.8400  1.1011
    6CHTO   C72 2314   5.734   5.272   1.159 -0.1221 -0.0458 -0.2311
    6CHTO   O48 2315   5.729   5.126   1.158 -0.2912  0.4913  0.8170
    6CHTO  H105 2316   5.766   5.083   1.234 -2.0391 -1.1118  0.7806
    6CHTO   O38 2317   5.781   5.591   1.152  0.2017  0.7930  0.3517
    6CHTO   C55 2318   5.863   5.714   1.157 -0.5663  0.3390 -0.5114
    6CHTO  H112 2319   5.807   5.807   1.176  0.9165  1.3971 -1.1952
    6CHTO   C56 2320   5.947   5.726   1.026 -0.1634 -0.5447 -0.3933
    6CHTO  H113 2321   6.001   5.632   1.009  0.4602 -0.1298 -0.7382
    6CHTO   O42 2322   5.852   5.735   0.922 -0.1189  0.0231 -0.6128
    6CHTO  H100 2323   5.816   5.821   0.916  2.3812  1.2668  1.0477
    6CHTO   C57 2324   6.051   5.851   1.026 -0.3509  0.0957 -0.8487
    6CHTO  H114 2325   5.996   5.945   1.032 -0.2987  0.1406 -1.0661
    6CHTO   N10 2326   6.144   5.841   0.917 -0.4180 -0.0623  0.6721
    6CHTO  H106 2327   6.089   5.891   0.838 -1.1377 -0.1247  1.1326
    6CHTO  H107 2328   6.237   5.894   0.932  0.8294 -1.6640 -1.1871
    6CHTO   C58 2329   6.133   5.842   1.156  0.9604 -0.4995  0.2362
    6CHTO  H115 2330   6.196   5.751   1.161  1.1793 -0.5032 -2.0502
    6CHTO   O37 2331   6.045   5.836   1.269 -0.3060 -0.4652  0.9181
    6CHTO   C59 2332   5.970   5.711   1.276 -0.4700 -0.1336  0.5404
    6CHTO  H116 2333   6.029   5.620   1.272 -0.3902  0.0433 -3.2501
    6CHTO   C70 2334   5.901   5.703   1.410 -0.3816 -0.1220  0.4276
    6CHTO   O46 2335   5.989   5.672   1.518 -0.3674  0.5847 -0.2244
    6CHTO  H103 2336   6.045   5.597   1.508  0.8694  1.7891 -2.6455
    6CHTO   O39 2337   6.239   5.970   1.175  0.0671  0.1008 -0.4283
    6CHTO   C60 2338   6.375   5.928   1.202  0.0314 -0.2069  0.2846
    6CHTO  H117 2339   6.380   5.823   1.232 -0.6977 -0.4521 -0.4214
    6CHTO   C62 2340   6.474   5.922   1.085 -0.9327  0.1354  1.0547
    6CHTO  H119 2341   6.431   5.855   1.008  0.4821  0.0325  0.3344
    6CHTO   O43 2342   6.473   6.053   1.027  0.8311 -0.2158 -0.6774
    6CHTO  H101 2343   6.506   6.113   1.090  1.3495 -0.5746 -0.6031
    6CHTO   C66 2344   6.624   5.868   1.133  0.2037 -0.0805  0.0564
    6CHTO  H123 2345   6.610   5.773   1.185 -0.5696 -0.5283 -0.9575
    6CHTO   N12 2346   6.727   5.853   1.023 -0.0479  0.4531 -0.3807
    6CHTO  H110 2347   6.691   5.772   0.960 -0.2525  1.6133 -1.7776
    6CHTO  H111 2348   6.745   5.937   0.958  2.2546  0.4075  0.1630
    6CHTO   C69 2349   6.673   5.970   1.237 -0.1105 -0.4197 -0.3947
    6CHTO  H126 2350   6.683   6.071   1.191 -1.2671 -0.6110 -1.0693
    6CHTO   O41 2351   6.579   5.980   1.358 -0.0370 -0.0849 -0.0234
    6CHTO   C64 2352   6.429   6.014   1.320  0.4894  0.1348 -0.1467
    6CHTO  H121 2353   6.422   6.122   1.296  0.6072 -0.4012 -2.8006
    6CHTO   C71 2354   6.351   5.986   1.447 -0.0769  0.1843 -0.0589
    6CHTO   O47 2355   6.330   5.849   1.483 -0.1379 -0.6707 -0.2876
    6CHTO  H104 2356   6.264   5.802   1.435 -0.7936 -0.5626  0.5087
    6CHTO   O34 2357   6.817   5.933   1.292 -0.2877  0.2550 -0.5622
    6CHTO   C49 2358   6.940   5.944   1.332 -0.2223  0.2126 -0.5283
    6CHTO   H91 2359   6.991   5.852   1.306  2.4425  0.5335  3.1683
    6CHTO   C47 2360   6.943   5.947   1.488 -0.1420 -0.1026 -0.1336
    6CHTO   H89 2361   7.049   5.924   1.511 -0.3971 -2.2184 -0.9595
    6CHTO   O33 2362   6.858   5.832   1.537  0.5687 -0.1939  0.4069
    6CHTO   H70 2363   6.768   5.856   1.520  0.8825  0.0149 -1.0722
    6CHTO   C45 2364   6.906   6.083   1.550  0.4911 -0.2597  0.3592
    6CHTO   H87 2365   6.814   6.119   1.502 -0.1228 -0.0423  1.6869
    6CHTO    N8 2366   6.872   6.077   1.692 -0.0200  0.8367 -0.0951
    6CHTO   H75 2367   6.946   6.135   1.746  1.7417  0.4237 -2.0172
    6CHTO   H76 2368   6.769   6.087   1.723  0.4580  3.4385  0.8064
    6CHTO   C43 2369   7.012   6.183   1.492 -0.1694  0.4627 -0.0351
    6CHTO   H85 2370   6.976   6.275   1.537 -1.0102 -0.1344  0.5460
    6CHTO   O29 2371   7.014   6.187   1.349 -0.2848  0.1576  0.5258
    6CHTO   C50 2372   7.024   6.060   1.282  0.3249  0.1044  0.1650
    6CHTO   H92 2373   6.998   6.072   1.175  0.2509  0.8091  0.2606
    6CHTO   C54 2374   7.180   6.033   1.261  0.4999 -0.9972  0.5869
    6CHTO   O36 2375   7.239   6.130   1.172  0.7607 -0.5451 -0.1969
    6CHTO   H72 2376   7.331   6.117   1.178  0.5732 -1.7782  0.0384
    6CHTO   O27 2377   7.148   6.156   1.541 -0.9540 -0.2151  0.6625
    6CHTO   C37 2378   7.232   6.257   1.598  0.4429  0.1980  0.3314
    6CHTO   H79 2379   7.335   6.217   1.602 -0.5751 -2.5608  0.0937
    6CHTO   C38 2380   7.235   6.388   1.521  0.0235 -0.6934 -0.3307
    6CHTO   H80 2381   7.132   6.426   1.514  0.6444  1.0296 -0.2221
    6CHTO   O31 2382   7.282   6.359   1.386 -0.2134 -0.7063 -0.6484
    6CHTO   H68 2383   7.285   6.437   1.333 -3.7890 -0.0906 -0.0617
    6CHTO   C39 2384   7.320   6.502   1.589 -0.5997 -0.3798  1.3647
    6CHTO   H81 2385   7.423   6.465   1.590  0.3424  2.1373  1.6286
    6CHTO    N7 2386   7.320   6.633   1.514 -0.2442 -0.4903  0.2668
    6CHTO   H73 2387   7.388   6.700   1.564  1.3860 -1.9648  0.0455
    6CHTO   H74 2388   7.343   6.618   1.410 -1.3750 -1.3330  0.1225
    6CHTO   C40 2389   7.274   6.509   1.740  0.0905 -0.0106 -0.4578
    6CHTO   H82 2390   7.178   6.559   1.756  2.3646  4.4046  0.1608
    6CHTO   O26 2391   7.279   6.376   1.802 -0.3132 -0.6043 -0.2947
    6CHTO   C41 2392   7.187   6.280   1.742 -0.0219  0.3359  0.1675
    6CHTO   H83 2393   7.081   6.309   1.739 -0.9552 -2.7085  1.3831
    6CHTO   C52 2394   7.193   6.151   1.830 -0.6855  0.1116  0.1554
    6CHTO   O35 2395   7.114   6.156   1.961  0.1234 -0.7516 -0.1254
    6CHTO   H71 2396   7.027   6.120   1.960 -0.4323  0.5124  0.7671
    6CHTO   O28 2397   7.383   6.573   1.809 -0.2628  0.0090  0.1365
    6CHTO   C42 2398   7.382   6.627   1.950 -0.2277 -0.1613 -0.1203
    6CHTO   H84 2399   7.467   6.695   1.953  0.2033 -0.6896 -0.3332
    6CHTO   C44 2400   7.400   6.521   2.068 -0.0808 -0.1086  0.0527
    6CHTO   H86 2401   7.338   6.435   2.045 -1.1684  0.6359  0.1581
    6CHTO   O32 2402   7.531   6.480   2.047 -0.1736 -0.0571  0.6010
    6CHTO   H69 2403   7.600   6.527   2.089  1.7513 -1.7627 -0.5701
    6CHTO   C48 2404   7.377   6.578   2.215 -0.2096 -0.7859  0.0322
    6CHTO   H90 2405   7.456   6.644   2.252 -0.1142 -0.3338 -0.9710
    6CHTO    N9 2406   7.382   6.465   2.313  0.0096  0.0124 -0.1753
    6CHTO   H77 2407   7.362   6.492   2.415 -1.0717 -0.8067 -0.1579
    6CHTO   H78 2408   7.479   6.418   2.304  0.5945  0.9222  1.1607
    6CHTO   C51 2409   7.244   6.656   2.224  0.3021 -0.5278  0.1121
    6CHTO   H93 2410   7.161   6.586   2.207 -1.4607  1.1972  1.3479
    6CHTO   O30 2411   7.247   6.759   2.132 -0.2774 -0.1769  0.4101
    6CHTO   C46 2412   7.259   6.711   1.977  0.4334 -0.2383 -0.5420
    6CHTO   H88 2413   7.174   6.646   1.953  0.9412 -0.9983 -0.2807
    6CHTO   C53 2414   7.255   6.838   1.885 -0.5820 -0.4360  0.6724
    6CHTO   O72 2415   7.167   6.937   1.934 -0.1341 -0.1587 -0.2605
    6CHTO  H199 2416   7.206   7.020   1.911 -2.4257  1.4246  1.3106
    6CHTO   O22 2417   7.238   6.736   2.350 -0.1678  0.3751 -0.5731
    6CHTO   C31 2418   7.109   6.773   2.408  0.1599 -0.2569  0.2542
    6CHTO   H59 2419   7.032   6.744   2.334 -1.0727 -0.3616  1.5740
    6CHTO   C29 2420   7.082   6.696   2.541 -0.3749  0.7798  0.6942
    6CHTO   H57 2421   7.165   6.708   2.612 -0.9572 -0.0304  1.5194
    6CHTO   O21 2422   7.077   6.560   2.513 -0.6384  0.3884 -0.0105
    6CHTO   H37 2423   7.163   6.527   2.528 -0.0931  1.0754 -1.5151
    6CHTO   C27 2424   6.951   6.755   2.624 -0.2152 -0.0879  0.0524
    6CHTO   H55 2425   6.860   6.714   2.577 -0.9482 -0.3251  1.6668
    6CHTO    N5 2426   6.958   6.720   2.770 -0.0891 -0.1732 -0.1755
    6CHTO   H43 2427   6.965   6.612   2.770 -1.6649 -0.2898 -0.7309
    6CHTO   H44 2428   7.056   6.737   2.813 -1.4817  3.7872  1.7115
    6CHTO   C25 2429   6.934   6.902   2.613  1.1021 -0.2194 -0.3960
    6CHTO   H53 2430   7.001   6.954   2.684 -0.2507  1.1569 -0.1154
    6CHTO   O17 2431   6.961   6.952   2.479 -0.0192 -0.7076 -0.2232
    6CHTO   C32 2432   7.098   6.928   2.429  0.5092  0.6664  0.1608
    6CHTO   H60 2433   7.179   6.951   2.497 -0.7009  0.5491  1.6534
    6CHTO   C36 2434   7.123   7.000   2.303  0.5033  0.1716 -0.3012
    6CHTO   O25 2435   7.102   7.146   2.312  0.5695  0.3818 -0.1805
    6CHTO   H40 2436   7.131   7.166   2.399 -2.0739 -0.4829  0.9595
    6CHTO   O15 2437   6.798   6.937   2.653  0.0722 -0.0575 -0.7216
    6CHTO   C19 2438   6.691   6.972   2.749  0.4498 -0.8430  0.0001
    6CHTO   H47 2439   6.710   6.915   2.842 -3.6043  1.8709  2.6540
    6CHTO   C20 2440   6.703   7.128   2.777 -0.8737  0.6835 -0.2831
    6CHTO   H48 2441   6.713   7.189   2.686  1.1066  1.0956  0.1999
    6CHTO   O19 2442   6.820   7.165   2.852 -0.0334  0.0666  0.5546
    6CHTO   H35 2443   6.895   7.136   2.803  0.5096  0.6111  1.0610
    6CHTO   C21 2444   6.571   7.195   2.844  0.0836 -0.1755  0.9949
    6CHTO   H49 2445   6.559   7.158   2.945 -2.1312  0.9498  1.1695
    6CHTO    N4 2446   6.569   7.344   2.855  0.2855  0.3264 -0.1875
    6CHTO   H41 2447   6.479   7.379   2.904 -0.6714  0.0603 -1.7351
    6CHTO   H42 2448   6.652   7.360   2.923  1.7616  3.1052 -2.5289
    6CHTO   C22 2449   6.439   7.138   2.782 -0.6278 -0.9468  0.1287
    6CHTO   H50 2450   6.434   7.175   2.679  1.6737 -1.1794 -0.0907
    6CHTO   O14 2451   6.453   6.995   2.783  0.3120 -0.3836 -0.1217
    6CHTO   C23 2452   6.554   6.945   2.699  0.2452  0.0179 -0.3096
    6CHTO   H51 2453   6.537   6.990   2.600 -0.1093  1.2934  0.3134
    6CHTO   C34 2454   6.537   6.789   2.688  0.1285  0.5960 -0.6717
    6CHTO   O23 2455   6.586   6.732   2.566 -0.0535  0.5511  0.0098
    6CHTO   H38 2456   6.667   6.689   2.587  0.0190  1.5583  1.9306
    6CHTO   O16 2457   6.323   7.169   2.855 -0.2757  0.3901 -0.0928
    6CHTO   C24 2458   6.179   7.135   2.761  0.0219 -0.5042 -0.4768
    6CHTO   H52 2459   6.195   7.059   2.685 -1.1762 -2.4760  1.1823
    6CHTO   C26 2460   6.131   7.268   2.704 -0.1891 -1.0645 -0.4210
    6CHTO   H54 2461   6.091   7.330   2.787 -2.4235  0.4577 -2.5704
    6CHTO   O20 2462   6.238   7.332   2.633  0.0889  0.1043 -0.2218
    6CHTO   H36 2463   6.231   7.424   2.650  1.6017  0.2763 -0.4491
    6CHTO   C30 2464   6.008   7.228   2.618 -0.5421  0.5785 -0.3919
    6CHTO   H58 2465   6.028   7.159   2.535  0.2086  1.6796 -1.1396
    6CHTO    N6 2466   5.956   7.353   2.549 -0.0948 -0.6235 -0.4311
    6CHTO   H45 2467   5.888   7.346   2.465 -0.6453  0.9623 -0.1443
    6CHTO   H46 2468   6.032   7.428   2.530  1.2965 -1.1387  2.8228
    6CHTO   C33 2469   5.896   7.161   2.702  0.1529 -0.5140 -0.1082
    6CHTO   H61 2470   5.862   7.239   2.771 -0.9006 -1.6002  0.6174
    6CHTO   O18 2471   5.949   7.044   2.772  0.7282 -0.7120 -0.3077
    6CHTO   C28 2472   6.064   7.077   2.854 -0.0395  0.4753  0.4329
    6CHTO   H56 2473   6.047   7.149   2.934  0.5775 -0.4554  1.4137
    6CHTO   C35 2474   6.126   6.950   2.931 -0.9019 -0.4096 -0.0507
    6CHTO   O24 2475   6.035   6.894   3.023  0.8056 -0.2476 -0.7644
    6CHTO   H39 2476   5.980   6.958   3.063 -1.6405 -0.9288 -2.8943
    6CHTO    O9 2477   5.779   7.128   2.627  0.1843 -0.3401  0.2006
    6CHTO   C13 2478   5.657   7.214   2.640  0.0787  0.5550  0.1608
    6CHTO   H26 2479   5.677   7.308   2.696 -1.2014  0.2184  1.2048
    6CHTO   C11 2480   5.547   7.125   2.712  0.1996 -0.1795  0.5746
    6CHTO   H24 2481   5.594   7.088   2.804  2.2090 -1.6722 -1.0239
    6CHTO    O8 2482   5.518   7.009   2.634 -0.1210  0.3954  0.0547
    6CHTO    H3 2483   5.592   6.951   2.633  0.0802  0.6528 -0.1323
    6CHTO    C9 2484   5.426   7.218   2.742  0.4647  0.2548 -0.4468
    6CHTO   H22 2485   5.461   7.305   2.800 -0.3949  0.7383 -0.6516
    6CHTO    N2 2486   5.319   7.162   2.831  0.1436  0.4903  0.3364
    6CHTO   H10 2487   5.307   7.227   2.916 -1.9224  1.4198 -0.6387
    6CHTO   H11 2488   5.228   7.141   2.778  0.1178  2.9726 -0.6863
    6CHTO    C7 2489   5.378   7.286   2.600  0.0328 -0.0893  0.6165
    6CHTO   H20 2490   5.391   7.396   2.606 -0.4091 -0.0602  1.0196
    6CHTO    O4 2491   5.454   7.243   2.486  0.1247  0.6440  0.0162
    6CHTO   C14 2492   5.599   7.259   2.505  0.2917  0.5865 -0.0634
    6CHTO   H27 2493   5.620   7.367   2.491 -1.9613  0.7761 -2.3843
    6CHTO   C18 2494   5.660   7.182   2.383  0.2700 -0.7165 -0.0443
    6CHTO   O13 2495   5.633   7.256   2.259 -0.4554 -0.2242 -0.2495
    6CHTO    H7 2496   5.544   7.235   2.236 -0.6887 -0.6138  0.9703
    6CHTO    O2 2497   5.216   7.255   2.559  0.2258  0.4856  0.4587
    6CHTO    C1 2498   5.131   7.369   2.586  0.3937 -0.2180 -0.1063
    6CHTO   H14 2499   5.197   7.447   2.628  0.4000  0.0629 -0.6385
    6CHTO    C2 2500   5.009   7.342   2.678  0.9584  0.0977  0.2856
    6CHTO   H15 2501   4.950   7.255   2.645 -1.3639  1.7439 -0.0924
    6CHTO    O6 2502   5.048   7.307   2.812 -0.4683  0.2480 -0.1094
    6CHTO    H1 2503   5.077   7.383   2.858  0.3685 -0.2825  0.2501
    6CHTO    C3 2504   4.903   7.470   2.677 -0.3261 -0.2470  0.8650
    6CHTO   H16 2505   4.955   7.552   2.729 -1.2212  0.1509  1.1416
    6CHTO    N1 2506   4.777   7.437   2.759 -0.8051 -0.3282 -0.2567
    6CHTO    H8 2507   4.730   7.521   2.808  1.0221  0.4006  0.2713
    6CHTO    H9 2508   4.699   7.376   2.716  0.1316 -0.3012 -2.0360
    6CHTO    C4 2509   4.884   7.517   2.527 -0.2272  0.2946  0.1416
    6CHTO   H17 2510   4.835   7.440   2.468  0.9974 -0.3041 -0.1236
    6CHTO    O1 2511   5.009   7.550   2.473 -0.7883 -0.2387 -0.1052
    6CHTO    C5 2512   5.085   7.427   2.452 -0.2042 -0.0259  0.5038
    6CHTO   H18 2513   5.020   7.354   2.403 -0.3198  1.2179 -1.2460
    6CHTO   C16 2514   5.198   7.456   2.348 -0.1691  0.4804  0.1548
    6CHTO   O11 2515   5.148   7.521   2.228 -0.1544  0.0857  0.1519
    6CHTO    H5 2516   5.179   7.480   2.149  4.3493  0.2376  1.6763
    6CHTO    O3 2517   4.811   7.633   2.514 -0.4120 -0.3767  0.1276
    6CHTO    C6 2518   4.710   7.646   2.407 -0.0779 -0.0216 -0.0753
    6CHTO   H19 2519   4.692   7.750   2.382 -1.4946  0.2507  1.9555
    6CHTO    C8 2520   4.759   7.588   2.266  0.6741 -1.0094 -0.4228
    6CHTO   H21 2521   4.800   7.489   2.285 -1.0864 -1.6174  0.2674
    6CHTO    O7 2522   4.872   7.669   2.225 -0.3096 -0.2379 -0.0100
    6CHTO    H2 2523   4.950   7.622   2.250 -0.4707 -1.1850 -1.2426
    6CHTO   C12 2524   4.652   7.579   2.158  0.3613  0.2321  0.1165
    6CHTO   H25 2525   4.628   7.683   2.127 -0.7250  0.2278  0.9064
    6CHTO    N3 2526   4.694   7.511   2.029 -0.1178 -0.3229 -0.0549
    6CHTO   H12 2527   4.684   7.403   2.036  1.9980 -0.5516 -0.2395
    6CHTO   H13 2528   4.797   7.535   2.007 -0.6895  2.3687  0.1212
    6CHTO   C15 2529   4.516   7.515   2.220  1.1537 -0.5425  0.4656
    6CHTO   H28 2530   4.537   7.409   2.233 -0.2917 -0.9648 -0.5176
    6CHTO   O10 2531   4.403   7.532   2.134 -0.5017 -0.0897 -0.0660
    6CHTO    H4 2532   4.402   7.461   2.072 -0.8663  0.2187 -0.4123
    6CHTO    O5 2533   4.476   7.589   2.333 -0.0098  0.0817 -0.2186
    6CHTO   C10 2534   4.570   7.583   2.443  0.2583  0.0943  0.9289
    6CHTO   H23 2535   4.582   7.478   2.468  1.5789  0.4396  1.8060
    6CHTO   C17 2536   4.506   7.648   2.560 -0.2820  0.3220 -0.0088
    6CHTO   O12 2537   4.390   7.578   2.596  0.6405  0.3562  0.3866
    6CHTO    H6 2538   4.409   7.499   2.643  0.9156  0.4885  0.4983
    7CHTO  H203 2539   4.913   2.534   2.424 -0.1276  0.8765 -0.7358
    7CHTO   O82 2540   4.862   2.605   2.457 -0.4812  0.3152 -0.0750
    7CHTO  C123 2541   4.930   2.718   2.510 -0.6248 -0.3525 -0.0892
    7CHTO  H227 2542   4.855   2.785   2.554 -1.3373  0.1682 -2.0565
    7CHTO   O77 2543   5.005   2.653   2.608 -0.0411  0.1988  0.4846
    7CHTO  C118 2544   5.086   2.745   2.684 -0.0923 -0.4328  0.2595
    7CHTO  H222 2545   5.024   2.824   2.730  0.7249  0.1986  0.2896
    7CHTO  C125 2546   5.165   2.670   2.788 -0.1246 -0.3491 -0.4709
    7CHTO   O84 2547   5.084   2.592   2.877  0.3190 -0.0647 -1.0883
    7CHTO  H205 2548   4.997   2.627   2.881  0.4838  0.4095 -1.5825
    7CHTO  C114 2549   5.182   2.827   2.592 -0.4782 -0.4291  0.3236
    7CHTO  H218 2550   5.254   2.763   2.541  0.9545  0.0755  1.6876
    7CHTO  C116 2551   5.109   2.898   2.485 -0.0636 -0.6278 -0.5674
    7CHTO  H220 2552   5.038   2.973   2.526  1.2865 -0.9577  2.4415
    7CHTO   O79 2553   5.203   2.975   2.407 -0.2503 -0.4666 -0.2152
    7CHTO  H201 2554   5.257   3.015   2.472  1.5792 -1.2852 -1.1784
    7CHTO  C120 2555   5.020   2.794   2.401  0.0096  0.4216 -0.3525
    7CHTO  H224 2556   5.087   2.730   2.340  0.0798 -0.1385  0.3080
    7CHTO   N21 2557   4.941   2.869   2.301 -0.0955  0.4100  0.3268
    7CHTO  H211 2558   4.911   2.812   2.214  0.9087  1.1573 -0.5163
    7CHTO  H212 2559   5.004   2.949   2.264  0.9042 -0.9379 -0.9567
    7CHTO   O75 2560   5.253   2.916   2.677 -0.2806  0.1205 -0.0922
    7CHTO  C112 2561   5.420   2.934   2.638 -0.5372  0.5110 -0.3170
    7CHTO  H216 2562   5.437   2.909   2.533 -0.9600 -1.8016  0.1460
    7CHTO   O73 2563   5.492   2.851   2.727  0.8867 -0.4709  0.5750
    7CHTO  C113 2564   5.631   2.863   2.712 -0.2936 -0.0374  0.1527
    7CHTO  H217 2565   5.649   2.840   2.605  0.8025 -2.3109  0.7920
    7CHTO  C124 2566   5.703   2.758   2.803 -0.1606 -0.1474  0.0179
    7CHTO   O83 2567   5.686   2.765   2.945  0.3285 -0.5347 -0.6678
    7CHTO  H204 2568   5.665   2.850   2.978 -1.5663 -1.2610  0.0930
    7CHTO  C109 2569   5.686   3.008   2.737  0.2780  0.1110 -0.5799
    7CHTO  H213 2570   5.662   3.030   2.842 -2.5388  1.2093 -1.4064
    7CHTO  C110 2571   5.616   3.097   2.637 -0.8061  0.4586 -0.5463
    7CHTO  H214 2572   5.643   3.068   2.535 -1.1207 -2.2153  0.0929
    7CHTO   O78 2573   5.658   3.233   2.668 -0.4172 -0.6626  0.1160
    7CHTO  H200 2574   5.624   3.289   2.601  1.6263  2.1657  1.3513
    7CHTO  C111 2575   5.465   3.079   2.650 -0.1807  0.0255 -0.8234
    7CHTO  H215 2576   5.426   3.111   2.748  2.1025 -0.6858  0.3547
    7CHTO   N19 2577   5.398   3.159   2.551 -0.2550  0.6426 -0.6768
    7CHTO  H207 2578   5.406   3.260   2.588  5.0351 -0.5530  2.0057
    7CHTO  H208 2579   5.293   3.132   2.548 -0.7618  2.4983  0.2241
    7CHTO   O74 2580   5.826   3.020   2.710 -0.1747 -0.0160  0.0218
    7CHTO  C115 2581   5.890   3.091   2.844 -0.8032  0.0510 -0.0622
    7CHTO  H219 2582   5.822   3.166   2.884 -1.0254 -0.9213  1.4136
    7CHTO   O76 2583   5.903   2.980   2.971  0.1426  0.2802  0.3303
    7CHTO  C122 2584   6.018   2.893   2.979  0.0050 -0.1235 -0.0426
    7CHTO  H226 2585   5.997   2.805   2.918 -2.0009 -0.5668  1.2683
    7CHTO  C126 2586   6.038   2.839   3.123  0.1010 -0.1718 -0.0788
    7CHTO   O85 2587   5.937   2.749   3.175  0.6096 -0.0839 -0.4423
    7CHTO  H206 2588   5.953   2.661   3.148  0.0853 -0.9267  1.8656
    7CHTO  C121 2589   6.149   2.966   2.943 -0.2700  0.2571 -0.5380
    7CHTO  H225 2590   6.172   3.041   3.022  0.8072 -1.4216  0.7689
    7CHTO   O81 2591   6.253   2.879   2.932 -0.0452 -0.0382  0.2524
    7CHTO  H202 2592   6.335   2.924   2.921 -0.4104  1.1901  2.2174
    7CHTO  C119 2593   6.133   3.036   2.799  0.5155 -0.2727  0.4763
    7CHTO  H223 2594   6.231   3.080   2.779 -0.0693  1.4074  1.1653
    7CHTO  C117 2595   6.026   3.154   2.794  0.3438  1.3821  0.1996
    7CHTO  H221 2596   5.995   3.200   2.700 -1.7572  0.1772  0.2824
    7CHTO   N20 2597   6.076   3.264   2.884  0.3722 -0.0342 -0.6629
    7CHTO  H209 2598   6.008   3.275   2.967  1.0278  0.0373 -0.1304
    7CHTO  H210 2599   6.070   3.354   2.824  1.6034  1.4314  1.3482
    7CHTO   O80 2600   6.112   2.930   2.674 -0.1303 -0.4492 -0.1809
    7CHTO  C103 2601   6.200   2.918   2.562 -0.2502  0.4895 -0.6864
    7CHTO  H190 2602   6.164   2.986   2.485 -0.2659  0.7493 -0.4548
    7CHTO  C101 2603   6.366   2.933   2.582  0.4022 -0.5348 -0.2729
    7CHTO  H188 2604   6.379   2.885   2.679  0.6475  1.1431  0.5293
    7CHTO   O68 2605   6.399   3.089   2.604  0.1837  0.4403 -0.2374
    7CHTO  H168 2606   6.479   3.098   2.653 -0.3517 -0.5525  0.8645
    7CHTO   C99 2607   6.453   2.866   2.464  0.0359 -0.0928 -0.2782
    7CHTO  H186 2608   6.432   2.929   2.375  4.0520 -0.8424 -1.8497
    7CHTO   N17 2609   6.607   2.875   2.485  0.1107 -0.0535  0.4943
    7CHTO  H174 2610   6.651   2.777   2.498  1.5122  0.6312  0.9216
    7CHTO  H175 2611   6.655   2.924   2.402 -0.0933 -0.0257  0.3929
    7CHTO   C97 2612   6.398   2.726   2.438 -0.0303  0.7533 -0.6573
    7CHTO  H184 2613   6.404   2.664   2.528 -1.0359  1.5691 -0.0165
    7CHTO   O64 2614   6.257   2.740   2.396  0.0641 -0.0698 -0.1065
    7CHTO  C104 2615   6.167   2.767   2.512  0.1580 -0.7323 -0.0411
    7CHTO  H191 2616   6.194   2.689   2.583 -0.8823 -0.3067  0.8331
    7CHTO  C108 2617   6.025   2.733   2.461  0.3693  0.3557  0.3559
    7CHTO   O71 2618   6.025   2.633   2.361 -0.5311 -0.1499  0.3753
    7CHTO  H171 2619   6.098   2.576   2.376 -0.0123  0.5418  0.4957
    7CHTO   O62 2620   6.470   2.654   2.337  0.6417 -0.3614  0.4202
    7CHTO   C91 2621   6.441   2.520   2.300  0.8145  0.0083  0.1163
    7CHTO  H178 2622   6.534   2.478   2.262 -0.0055 -0.7177 -1.1127
    7CHTO   C92 2623   6.357   2.518   2.166  0.0163 -0.1675 -0.9825
    7CHTO  H179 2624   6.276   2.590   2.185 -0.8820 -1.2070 -0.7727
    7CHTO   O66 2625   6.441   2.578   2.066 -0.3252  0.0934  0.1987
    7CHTO  H166 2626   6.489   2.651   2.100 -0.3625  1.8273 -3.2868
    7CHTO   C93 2627   6.288   2.383   2.124 -0.2589 -0.6860  0.4218
    7CHTO  H180 2628   6.376   2.320   2.105  0.5598  0.8037 -0.7584
    7CHTO   N16 2629   6.213   2.394   1.993  0.0675 -0.2426 -0.2472
    7CHTO  H172 2630   6.276   2.398   1.906  0.8668 -1.5214  0.2538
    7CHTO  H173 2631   6.160   2.488   1.998 -0.4304 -0.5829  1.2718
    7CHTO   C94 2632   6.211   2.339   2.251  0.1636  0.3930 -0.6236
    7CHTO  H181 2633   6.140   2.415   2.283  0.1851  0.3878 -0.5637
    7CHTO   O61 2634   6.310   2.312   2.348  0.7564  0.4862 -0.3951
    7CHTO   C95 2635   6.369   2.428   2.409  0.0351  1.2133  0.1452
    7CHTO  H182 2636   6.292   2.488   2.458 -0.9407  1.4610 -1.6606
    7CHTO  C106 2637   6.472   2.388   2.524 -0.4298  0.1713  0.2369
    7CHTO   O69 2638   6.585   2.317   2.467  0.1272 -0.3903  0.3728
    7CHTO  H169 2639   6.631   2.281   2.541 -1.0947 -3.1647 -0.1888
    7CHTO   O63 2640   6.119   2.199   2.227  0.0686  0.1444 -0.2134
    7CHTO   C96 2641   5.995   2.197   2.349  0.2096 -0.1693 -0.5613
    7CHTO  H183 2642   5.924   2.278   2.335 -0.4464 -0.7147 -0.3653
    7CHTO   C98 2643   6.043   2.196   2.498 -0.0573 -0.2622 -0.6819
    7CHTO  H185 2644   6.123   2.268   2.516 -0.0060 -0.6066  0.5270
    7CHTO   O67 2645   5.939   2.230   2.600  0.4136  0.3028  0.0549
    7CHTO  H167 2646   5.929   2.323   2.605 -0.6055  0.2368 -0.6554
    7CHTO  C102 2647   6.095   2.049   2.538 -0.8863  0.2420 -0.0920
    7CHTO  H189 2648   6.116   2.059   2.646 -1.2852 -3.1936  0.3515
    7CHTO   N18 2649   6.232   2.016   2.486  0.1511  0.0182  0.2497
    7CHTO  H176 2650   6.292   2.106   2.482 -0.3937  0.2958 -3.1486
    7CHTO  H177 2651   6.280   1.939   2.544 -1.2244  0.4258  1.9805
    7CHTO  C105 2652   5.982   1.938   2.518  0.3252 -0.7705 -0.0469
    7CHTO  H192 2653   6.024   1.848   2.472 -0.0072 -0.9434 -0.0197
    7CHTO   O65 2654   5.870   1.984   2.446 -0.4501  1.1836 -0.3165
    7CHTO  C100 2655   5.904   2.064   2.331  0.3650  0.2669  0.6389
    7CHTO  H187 2656   5.965   2.001   2.264  1.2594  3.0652 -1.2804
    7CHTO  C107 2657   5.774   2.102   2.252 -0.1697 -0.4932  0.0144
    7CHTO   O70 2658   5.666   2.167   2.326 -0.7376  0.3254  0.3703
    7CHTO  H170 2659   5.595   2.188   2.269 -1.5107 -1.1746  0.7534
    7CHTO   O57 2660   5.924   1.916   2.661  0.3535  0.3204 -0.2096
    7CHTO   C85 2661   5.991   1.846   2.764 -1.1825  0.3945 -0.3830
    7CHTO  H157 2662   6.093   1.889   2.763  0.1754 -2.6505  1.4569
    7CHTO   C83 2663   6.017   1.699   2.721 -0.4441  0.2068 -0.1846
    7CHTO  H155 2664   6.071   1.694   2.627  1.1309  3.6016  0.4722
    7CHTO   O56 2665   5.902   1.624   2.689 -0.1054 -0.2898  0.3033
    7CHTO  H135 2666   5.914   1.568   2.615  0.6947 -0.1531  0.3271
    7CHTO   C81 2667   6.098   1.636   2.839  0.2314  0.0402  1.1456
    7CHTO  H153 2668   6.190   1.690   2.857 -2.1296  3.9620  1.9105
    7CHTO   N14 2669   6.153   1.502   2.806 -0.3747 -0.4671  0.0893
    7CHTO  H141 2670   6.100   1.459   2.724 -1.2296  0.6769  0.0238
    7CHTO  H142 2671   6.256   1.514   2.780  0.1007  2.0143  2.8100
    7CHTO   C79 2672   6.012   1.641   2.970 -0.6188  0.2478  0.3268
    7CHTO  H151 2673   6.075   1.603   3.050  1.1723  1.7263 -0.3304
    7CHTO   O52 2674   5.987   1.780   3.004  0.0002 -0.3577 -0.6163
    7CHTO   C86 2675   5.926   1.863   2.903  0.0048  0.1124 -0.2922
    7CHTO  H158 2676   5.818   1.838   2.909  0.2665 -1.3951 -1.5324
    7CHTO   C90 2677   5.939   2.006   2.957 -0.2415  0.3885  0.3681
    7CHTO   O60 2678   6.078   2.039   2.975  0.4653  0.2013 -0.3236
    7CHTO  H138 2679   6.117   1.960   3.006 -0.8882  0.1578  1.3646
    7CHTO   O50 2680   5.894   1.560   2.981 -0.4591  0.3253 -0.8025
    7CHTO   C73 2681   5.876   1.417   3.004 -0.0253  0.7153 -0.2304
    7CHTO  H145 2682   5.970   1.361   3.012  0.3738  1.1708 -1.5963
    7CHTO   C74 2683   5.792   1.361   2.884 -0.0826 -0.1989  1.2308
    7CHTO  H146 2684   5.845   1.391   2.792 -3.2407 -1.6689 -1.1476
    7CHTO   O54 2685   5.793   1.211   2.890 -0.3550 -0.7434  0.6444
    7CHTO  H133 2686   5.867   1.182   2.940  0.2900  0.4493  0.3987
    7CHTO   C75 2687   5.641   1.416   2.887  0.1449  0.2711 -0.1590
    7CHTO  H147 2688   5.643   1.525   2.874  0.7920  0.5360  1.8324
    7CHTO   N13 2689   5.561   1.375   2.771  0.0586 -0.4928  0.2245
    7CHTO  H139 2690   5.547   1.268   2.762 -0.3407 -0.3444 -1.0864
    7CHTO  H140 2691   5.466   1.426   2.777  0.3582  0.6114 -3.1069
    7CHTO   C76 2692   5.576   1.377   3.027  0.9697 -0.9784  0.1962
    7CHTO  H148 2693   5.582   1.270   3.046 -1.9957 -1.4167 -1.0817
    7CHTO   O49 2694   5.662   1.442   3.141  0.6428 -0.0510  0.2282
    7CHTO   C77 2695   5.792   1.391   3.134  0.4202 -0.0166 -0.0923
    7CHTO  H149 2696   5.778   1.283   3.147 -0.7229 -0.0074 -1.1460
    7CHTO   C88 2697   5.867   1.440   3.257  0.9797  0.3022  0.4127
    7CHTO   O58 2698   5.895   1.561   3.259 -0.2105  0.1657 -0.1272
    7CHTO  H136 2699   5.963   1.593   3.315  1.8981 -2.3433 -1.1629
    7CHTO   O51 2700   5.418   1.441   3.049 -0.8646 -0.2040  0.1551
    7CHTO   C78 2701   5.360   1.415   3.179 -0.1212  0.2151  0.4801
    7CHTO  H150 2702   5.445   1.399   3.249 -1.0510 -0.6439  1.4446
    7CHTO   C80 2703   5.261   1.291   3.172 -0.6860 -0.0544 -0.0283
    7CHTO  H152 2704   5.175   1.311   3.106 -0.3754 -1.0368 -0.7396
    7CHTO   O55 2705   5.325   1.181   3.110 -0.4439  0.1719  0.0152
    7CHTO  H134 2706   5.379   1.134   3.172  0.0850  1.1115  0.2756
    7CHTO   C84 2707   5.204   1.261   3.318 -0.2828  0.2807 -0.4359
    7CHTO  H156 2708   5.292   1.225   3.373 -1.6676 -0.6011  1.2578
    7CHTO   N15 2709   5.117   1.144   3.328  0.1509  0.2334 -0.1587
    7CHTO  H143 2710   5.034   1.155   3.261  0.3036 -1.2269 -0.5848
    7CHTO  H144 2711   5.173   1.055   3.309 -1.0655 -1.2746  3.0162
    7CHTO   C87 2712   5.136   1.386   3.375 -0.1192 -0.4718 -0.2608
    7CHTO  H159 2713   5.042   1.405   3.322 -0.6266 -0.0862  0.7588
    7CHTO   O53 2714   5.235   1.511   3.359 -0.2325 -0.1637  1.2363
    7CHTO   C82 2715   5.282   1.541   3.228 -0.0977 -0.8179  0.0399
    7CHTO  H154 2716   5.195   1.567   3.168 -0.2683  0.7003  0.9237
    7CHTO   C89 2717   5.367   1.670   3.236 -0.4248  0.7985  0.1848
    7CHTO   O59 2718   5.486   1.668   3.313  0.2471  0.4011  0.1319
    7CHTO  H137 2719   5.465   1.647   3.402 -0.4772 -0.7633 -0.3077
    7CHTO   O45 2720   5.110   1.365   3.543 -0.7171  0.8281 -0.1690
    7CHTO   C67 2721   5.180   1.449   3.634 -0.6265 -0.0937  0.1742
    7CHTO  H124 2722   5.265   1.502   3.589 -1.7148  2.7597  1.3994
    7CHTO   C65 2723   5.071   1.552   3.693 -0.0610 -0.6713 -0.2045
    7CHTO  H122 2724   4.972   1.508   3.701 -0.1519 -0.1085  2.4588
    7CHTO   O44 2725   5.070   1.667   3.603  0.2494  0.8077 -0.2269
    7CHTO  H102 2726   5.063   1.640   3.513 -1.3918  1.4288 -0.2996
    7CHTO   C63 2727   5.100   1.575   3.853  0.6721  0.1981  0.2745
    7CHTO  H120 2728   5.054   1.488   3.898 -0.6899  1.0571  0.5837
    7CHTO   N11 2729   5.019   1.686   3.914 -0.4546  0.5790 -0.7282
    7CHTO  H108 2730   4.930   1.649   3.962  1.2865 -3.6420 -0.5303
    7CHTO  H109 2731   5.007   1.764   3.842 -0.0960  0.1013 -1.3134
    7CHTO   C61 2732   5.250   1.583   3.883 -0.4219  0.2558 -0.0754
    7CHTO  H118 2733   5.267   1.596   3.991  1.9820  0.3404 -0.4284
    7CHTO   O40 2734   5.304   1.447   3.848  0.5419 -0.1025  0.0866
    7CHTO   C68 2735   5.234   1.353   3.753  0.0904  0.2072  0.9246
    7CHTO  H125 2736   5.149   1.300   3.801 -0.9026  0.6520 -0.2851
    7CHTO   C72 2737   5.333   1.253   3.700 -0.4129  0.0511 -0.6853
    7CHTO   O48 2738   5.406   1.188   3.803 -0.2118 -0.8127 -0.4386
    7CHTO  H105 2739   5.452   1.120   3.757 -1.0182 -1.4571 -0.3052
    7CHTO   O38 2740   5.324   1.682   3.798  0.0827  0.2486  0.0363
    7CHTO   C55 2741   5.454   1.728   3.849  0.7839  0.2450 -0.1186
    7CHTO  H112 2742   5.497   1.653   3.916  0.3054  0.5273  0.5109
    7CHTO   C56 2743   5.440   1.871   3.926  0.3678  0.0015 -0.4445
    7CHTO  H113 2744   5.380   1.929   3.854  0.6720  0.9785  0.0973
    7CHTO   O42 2745   5.372   1.857   4.055 -0.2473  0.4277  0.3634
    7CHTO  H100 2746   5.396   1.775   4.092 -1.0766  0.5095  1.0895
    7CHTO   C57 2747   5.581   1.944   3.935  0.7239 -0.1119 -0.0351
    7CHTO  H114 2748   5.641   1.914   4.021 -0.6510 -0.5567  0.7885
    7CHTO   N10 2749   5.572   2.090   3.965  0.1703  0.3007 -0.1650
    7CHTO  H106 2750   5.485   2.121   4.020  1.9131  1.6039  1.9440
    7CHTO  H107 2751   5.658   2.122   4.022 -1.7322 -0.8169  3.4617
    7CHTO   C58 2752   5.667   1.923   3.805  0.9233  0.4076  0.3871
    7CHTO  H115 2753   5.627   1.982   3.719 -0.2897  0.6050  1.0777
    7CHTO   O37 2754   5.671   1.789   3.758 -0.5839  0.2282  0.1232
    7CHTO   C59 2755   5.545   1.731   3.720 -0.3672 -0.4526 -0.2376
    7CHTO  H116 2756   5.497   1.785   3.638  1.4265  1.3964 -0.1171
    7CHTO   C70 2757   5.565   1.588   3.666  0.1380 -1.6687 -0.0907
    7CHTO   O46 2758   5.632   1.497   3.754 -0.0886 -0.2849  0.4043
    7CHTO  H103 2759   5.725   1.508   3.761 -0.1086  0.3043 -0.2056
    7CHTO   O39 2760   5.842   1.970   3.847 -0.1586 -0.3066  0.4282
    7CHTO   C60 2761   5.944   1.928   3.760  0.1534  0.6533  0.0196
    7CHTO  H117 2762   5.975   1.824   3.773  0.3257  0.6956 -0.0386
    7CHTO   C62 2763   5.913   1.938   3.605  0.0307  0.1238  0.6314
    7CHTO  H119 2764   5.820   1.878   3.589 -1.0540  1.5721  1.3930
    7CHTO   O43 2765   5.878   2.078   3.567  0.2632 -0.0253  0.0534
    7CHTO  H101 2766   5.803   2.105   3.615  1.7744  2.2078  1.2122
    7CHTO   C66 2767   6.021   1.882   3.513  0.0644 -0.5611 -0.9692
    7CHTO  H123 2768   6.043   1.779   3.542 -1.5701 -0.2338  1.5352
    7CHTO   N12 2769   5.984   1.871   3.366 -0.7191 -0.4200 -1.2501
    7CHTO  H110 2770   5.965   1.969   3.326 -0.2281  0.6650  1.0753
    7CHTO  H111 2771   5.896   1.814   3.343 -0.1964 -1.5127 -0.6086
    7CHTO   C69 2772   6.153   1.965   3.531  0.0482 -0.3126  0.0509
    7CHTO  H126 2773   6.142   2.071   3.503  0.3931  0.3019  2.1666
    7CHTO   O41 2774   6.195   1.958   3.700 -0.4583 -0.5539  0.1751
    7CHTO   C64 2775   6.067   2.010   3.796  0.8075 -0.1501 -0.2873
    7CHTO  H121 2776   6.046   2.113   3.762  1.1150  0.2323  0.6659
    7CHTO   C71 2777   6.105   2.004   3.946 -0.1311 -0.0831  0.2323
    7CHTO   O47 2778   6.161   1.878   3.978  0.2189 -1.0055 -0.5774
    7CHTO  H104 2779   6.201   1.881   4.063 -2.2108  0.2702  0.5681
    7CHTO   O34 2780   6.277   1.905   3.436  0.0921 -0.3017 -0.7951
    7CHTO   C49 2781   6.400   1.836   3.446 -0.0300  0.2489 -0.0200
    7CHTO   H91 2782   6.462   1.912   3.493 -2.0664  1.9104  0.0794
    7CHTO   C47 2783   6.448   1.799   3.305 -0.0699  0.2141  0.5932
    7CHTO   H89 2784   6.548   1.753   3.316 -0.2645 -1.0046 -2.4295
    7CHTO   O33 2785   6.465   1.914   3.221 -0.3032 -0.0081  0.3542
    7CHTO   H70 2786   6.411   1.915   3.145  0.2957  2.0891 -0.0701
    7CHTO   C45 2787   6.347   1.683   3.253 -0.4105  0.5175 -0.0279
    7CHTO   H87 2788   6.245   1.723   3.256 -1.2209 -1.5077 -0.1675
    7CHTO    N8 2789   6.380   1.636   3.114 -0.8082 -0.2243 -0.3089
    7CHTO   H75 2790   6.399   1.712   3.040 -1.8907 -1.2645 -1.6632
    7CHTO   H76 2791   6.314   1.561   3.074  0.5739 -1.3998 -0.4636
    7CHTO   C43 2792   6.360   1.556   3.352  0.7187  0.4807 -0.3725
    7CHTO   H85 2793   6.284   1.486   3.317  0.1366  1.3470 -0.8605
    7CHTO   O29 2794   6.331   1.596   3.489 -0.2510 -0.1495 -0.1239
    7CHTO   C50 2795   6.383   1.717   3.545 -0.2725  0.4415 -0.2673
    7CHTO   H92 2796   6.321   1.752   3.629  1.7054 -1.0749  1.8986
    7CHTO   C54 2797   6.519   1.683   3.611  0.2182 -0.6047 -0.4343
    7CHTO   O36 2798   6.499   1.607   3.731  0.0807  0.0119  0.1054
    7CHTO   H72 2799   6.579   1.561   3.749  1.8226  1.8075 -2.7101
    7CHTO   O27 2800   6.487   1.490   3.347  0.4549  0.8132 -0.0248
    7CHTO   C37 2801   6.541   1.367   3.406 -0.3107  0.8433  0.2563
    7CHTO   H79 2802   6.526   1.375   3.515  0.9809  1.1675  0.4081
    7CHTO   C38 2803   6.458   1.241   3.353  0.2807  0.2910  0.2834
    7CHTO   H80 2804   6.451   1.253   3.244 -0.5789  1.1781  0.4285
    7CHTO   O31 2805   6.327   1.241   3.417  0.7517  0.4921 -0.7107
    7CHTO   H68 2806   6.285   1.322   3.396  0.1237  0.1889 -0.6493
    7CHTO   C39 2807   6.536   1.105   3.380 -0.7684  0.4089  0.1642
    7CHTO   H81 2808   6.527   1.087   3.487 -0.7342  0.8763  0.2469
    7CHTO    N7 2809   6.475   0.986   3.313  0.0862  0.4266 -0.2910
    7CHTO   H73 2810   6.525   0.966   3.219 -1.4733  0.7285 -1.2001
    7CHTO   H74 2811   6.369   1.005   3.301  0.2094  0.6460 -1.1099
    7CHTO   C40 2812   6.692   1.118   3.349  0.5818 -0.7103  0.7046
    7CHTO   H82 2813   6.703   1.128   3.241 -0.9033  1.7596  0.7425
    7CHTO   O26 2814   6.748   1.231   3.419  0.0508 -0.0336  0.3226
    7CHTO   C41 2815   6.691   1.359   3.374 -0.1370  0.1853  0.4320
    7CHTO   H83 2816   6.707   1.369   3.266 -1.0956 -0.7991  0.1961
    7CHTO   C52 2817   6.755   1.481   3.438  0.3737  0.2079  0.4899
    7CHTO   O35 2818   6.894   1.492   3.398  0.2705  0.0862 -0.2322
    7CHTO   H71 2819   6.907   1.503   3.306 -3.7948 -1.3500 -1.0629
    7CHTO   O28 2820   6.769   1.011   3.398 -0.1235 -0.1243  0.3887
    7CHTO   C42 2821   6.902   0.986   3.344  0.0022  0.4056  0.2566
    7CHTO   H84 2822   6.925   0.901   3.410 -1.1556  0.1171  0.3038
    7CHTO   C44 2823   7.012   1.098   3.377 -0.2995 -0.4418  0.1706
    7CHTO   H86 2824   6.973   1.196   3.350 -0.5391  0.1588  2.5408
    7CHTO   O32 2825   7.028   1.099   3.519  0.1869 -0.2337  0.2483
    7CHTO   H69 2826   7.028   1.014   3.559 -2.4982 -0.4286 -0.0219
    7CHTO   C48 2827   7.147   1.064   3.299  0.0579  0.2202 -0.3709
    7CHTO   H90 2828   7.194   0.980   3.350 -1.2347  0.8830  2.0442
    7CHTO    N9 2829   7.253   1.172   3.322 -0.1478  0.7095 -0.0088
    7CHTO   H77 2830   7.336   1.150   3.257 -1.4192 -1.6608 -0.8749
    7CHTO   H78 2831   7.211   1.271   3.315 -0.1139  0.6756 -0.6872
    7CHTO   C51 2832   7.114   1.037   3.154 -0.3051 -0.4572 -1.1533
    7CHTO   H93 2833   7.052   1.121   3.121 -1.0608 -1.5122 -2.4939
    7CHTO   O30 2834   7.039   0.917   3.152  0.3497 -0.1602  0.2586
    7CHTO   C46 2835   6.903   0.929   3.202  0.5086 -0.1238  0.2720
    7CHTO   H88 2836   6.846   0.995   3.138  0.5624 -1.0978 -0.7958
    7CHTO   C53 2837   6.841   0.791   3.193  0.2217 -0.0957  0.1826
    7CHTO   O72 2838   6.704   0.791   3.233  0.3146 -0.1587 -0.2546
    7CHTO  H199 2839   6.693   0.700   3.254  1.4684 -0.8436 -2.4629
    7CHTO   O22 2840   7.230   1.011   3.081 -0.0896 -0.8946 -0.2997
    7CHTO   C31 2841   7.244   1.023   2.939 -0.2818  0.4427 -0.0234
    7CHTO   H59 2842   7.353   1.021   2.919 -0.2537  2.3598 -0.1908
    7CHTO   C29 2843   7.187   0.903   2.866 -0.2084  0.2607 -0.7207
    7CHTO   H57 2844   7.084   0.880   2.893  0.0963  0.0376  0.2607
    7CHTO   O21 2845   7.259   0.792   2.920  0.4854  0.9677 -0.4811
    7CHTO   H37 2846   7.249   0.775   3.012 -1.7651  0.2831 -0.8179
    7CHTO   C27 2847   7.210   0.915   2.711  0.5281 -0.0780 -0.3159
    7CHTO   H55 2848   7.318   0.909   2.693  0.6651  0.7258  0.2115
    7CHTO    N5 2849   7.142   0.800   2.638 -0.4781 -0.2030  0.4676
    7CHTO   H43 2850   7.153   0.805   2.531  0.6506  2.4927  0.6673
    7CHTO   H44 2851   7.048   0.768   2.679 -1.6384  2.2610 -0.1528
    7CHTO   C25 2852   7.153   1.052   2.659 -0.1100  0.1718  0.0051
    7CHTO   H53 2853   7.043   1.058   2.660 -0.0223  2.1950  1.2989
    7CHTO   O17 2854   7.219   1.158   2.735 -0.4161 -0.3223 -0.4628
    7CHTO   C32 2855   7.194   1.156   2.876 -0.6406 -0.8815  0.4586
    7CHTO   H60 2856   7.085   1.159   2.878 -0.6799  0.5746 -1.8674
    7CHTO   C36 2857   7.262   1.277   2.946  0.4556  0.0189  0.1590
    7CHTO   O25 2858   7.398   1.281   2.902 -0.0788  0.0552 -0.1265
    7CHTO   H40 2859   7.418   1.372   2.915 -2.3953  0.4814  0.7875
    7CHTO   O15 2860   7.195   1.081   2.506 -0.5702  0.2606 -0.5566
    7CHTO   C19 2861   7.156   1.176   2.411  0.3856  0.5124 -0.6522
    7CHTO   H47 2862   7.197   1.140   2.315  0.2008  1.5504 -1.1255
    7CHTO   C20 2863   7.005   1.184   2.405 -0.8578  0.4268 -0.5591
    7CHTO   H48 2864   6.966   1.193   2.507  3.0690 -0.4460  1.1451
    7CHTO   O19 2865   6.942   1.067   2.353  0.2699  0.2567  0.6622
    7CHTO   H35 2866   6.972   1.056   2.265 -2.4587 -3.7648  0.1181
    7CHTO   C21 2867   6.969   1.311   2.324  0.2119  0.5667  0.6580
    7CHTO   H49 2868   6.992   1.288   2.220 -1.1405 -1.2503  0.7243
    7CHTO    N4 2869   6.820   1.327   2.326 -0.2824  0.7968  0.6615
    7CHTO   H41 2870   6.778   1.280   2.239  0.5528 -0.7102  1.0532
    7CHTO   H42 2871   6.792   1.431   2.335  0.2784  1.0747 -0.6873
    7CHTO   C22 2872   7.053   1.432   2.376  0.4804 -0.3153  0.3720
    7CHTO   H50 2873   7.039   1.455   2.481  1.7145 -0.7164  0.6321
    7CHTO   O14 2874   7.189   1.409   2.353  0.1499  0.6225  0.5350
    7CHTO   C23 2875   7.238   1.306   2.441 -0.3512  0.2819 -0.1706
    7CHTO   H51 2876   7.238   1.335   2.547  1.3193 -0.5624  0.0793
    7CHTO   C34 2877   7.387   1.289   2.418 -0.0030  0.2599  0.9016
    7CHTO   O23 2878   7.426   1.289   2.280 -0.1111 -0.1308  0.0044
    7CHTO   H38 2879   7.513   1.255   2.280  1.1012  2.8609  1.2782
    7CHTO   O16 2880   7.039   1.556   2.298 -0.1376  0.2720 -0.1201
    7CHTO   C24 2881   7.013   1.690   2.403 -0.1743 -0.7518 -0.4857
    7CHTO   H52 2882   7.033   1.665   2.507 -1.2924  0.7838  0.1176
    7CHTO   C26 2883   6.872   1.745   2.392  0.0237 -0.3311 -0.4148
    7CHTO   H54 2884   6.849   1.762   2.285 -0.3886 -1.4389 -0.5149
    7CHTO   O20 2885   6.787   1.640   2.435  0.2530 -0.0259 -0.2307
    7CHTO   H36 2886   6.699   1.668   2.417 -0.5293 -2.6123 -0.7372
    7CHTO   C30 2887   6.853   1.880   2.474  0.3952  0.3129  0.1428
    7CHTO   H58 2888   6.847   1.852   2.580  1.4651  2.2262  0.7368
    7CHTO    N6 2889   6.724   1.934   2.427  0.0575 -0.0694  0.4716
    7CHTO   H45 2890   6.657   1.934   2.512 -1.7612 -1.9073 -0.9063
    7CHTO   H46 2891   6.724   2.034   2.386  1.7260  0.2279  1.1276
    7CHTO   C33 2892   6.966   1.984   2.438 -0.6833  0.3503 -0.5058
    7CHTO   H61 2893   6.950   2.027   2.338 -0.5108  1.1216 -0.2052
    7CHTO   O18 2894   7.094   1.919   2.435 -0.1773 -0.0774  0.2963
    7CHTO   C28 2895   7.110   1.798   2.359 -0.0932  0.6843 -0.1021
    7CHTO   H56 2896   7.096   1.818   2.252  1.4888 -0.4408 -0.5368
    7CHTO   C35 2897   7.265   1.747   2.353 -0.4450 -0.6992  0.4120
    7CHTO   O24 2898   7.329   1.751   2.479  0.6181  0.0895  0.7233
    7CHTO   H39 2899   7.346   1.837   2.512  0.3653  0.7210 -0.7354
    7CHTO    O9 2900   6.963   2.096   2.531  0.0875 -0.0722 -0.0071
    7CHTO   C13 2901   7.090   2.153   2.596 -0.7968  0.0782 -0.0126
    7CHTO   H26 2902   7.166   2.149   2.516 -1.1460 -0.9253 -0.2911
    7CHTO   C11 2903   7.127   2.051   2.716 -1.3104  0.0953  0.2116
    7CHTO   H24 2904   7.164   1.957   2.672  0.2615  0.9371 -0.3009
    7CHTO    O8 2905   7.007   2.015   2.780  0.6450 -0.1243  0.4485
    7CHTO    H3 2906   7.012   2.015   2.873 -0.9335  0.9409  0.5469
    7CHTO    C9 2907   7.246   2.103   2.802  0.1408 -0.0034 -0.2368
    7CHTO   H22 2908   7.335   2.087   2.740  0.6255  1.1781  0.1345
    7CHTO    N2 2909   7.276   2.022   2.926  0.2250  0.4207 -0.3108
    7CHTO   H10 2910   7.186   1.993   2.978  0.2517  0.7878 -0.0531
    7CHTO   H11 2911   7.339   2.078   2.994  0.9766  0.6815 -1.2076
    7CHTO    C7 2912   7.235   2.265   2.820  0.7202 -0.7681  0.3683
    7CHTO   H20 2913   7.310   2.293   2.743  1.3751 -0.7133  1.0207
    7CHTO    O4 2914   7.110   2.322   2.791  0.2273 -0.6115  0.2647
    7CHTO   C14 2915   7.074   2.300   2.653 -0.6133 -0.1207  0.2079
    7CHTO   H27 2916   7.139   2.367   2.594 -0.7959 -0.5962 -0.5481
    7CHTO   C18 2917   6.931   2.360   2.647 -0.5033  0.2712  0.3553
    7CHTO   O13 2918   6.899   2.392   2.514 -0.0597 -1.2997 -0.0334
    7CHTO    H7 2919   6.809   2.416   2.522 -1.0149 -3.8892 -2.2317
    7CHTO    O2 2920   7.286   2.329   2.977 -0.0264  0.3041  0.3318
    7CHTO    C1 2921   7.326   2.466   2.980  0.1906 -0.5846 -0.3826
    7CHTO   H14 2922   7.313   2.510   2.879 -1.2940  0.0429  0.0771
    7CHTO    C2 2923   7.479   2.492   3.032 -0.0647  0.5506 -0.7273
    7CHTO   H15 2924   7.498   2.445   3.129  0.5052 -0.4494 -1.3062
    7CHTO    O6 2925   7.570   2.432   2.940  0.6504  0.3398 -0.3712
    7CHTO    H1 2926   7.649   2.412   2.986 -1.2224 -4.2976  1.1927
    7CHTO    C3 2927   7.505   2.653   3.050 -0.2384  0.8115 -0.4739
    7CHTO   H16 2928   7.480   2.694   2.951  1.4313  1.5147 -0.6210
    7CHTO    N1 2929   7.649   2.690   3.080  0.2416 -0.0517 -0.0868
    7CHTO    H8 2930   7.709   2.624   3.020  2.2801  1.9917 -0.3692
    7CHTO    H9 2931   7.672   2.680   3.185 -0.5011 -1.1823 -0.0184
    7CHTO    C4 2932   7.399   2.711   3.149 -0.4323 -0.3950  0.6846
    7CHTO   H17 2933   7.408   2.673   3.251 -1.2843  1.7836  1.5835
    7CHTO    O1 2934   7.267   2.670   3.102  0.3616  0.5375  0.3758
    7CHTO    C5 2935   7.227   2.535   3.079 -0.6150  0.6546  0.4496
    7CHTO   H18 2936   7.238   2.487   3.176  1.8534 -0.9530 -0.5813
    7CHTO   C16 2937   7.076   2.534   3.028  0.0870 -0.7704  0.3638
    7CHTO   O11 2938   7.047   2.611   2.911 -0.2032  0.3784  0.0277
    7CHTO    H5 2939   6.984   2.678   2.929  2.9459  3.2819  0.7485
    7CHTO    O3 2940   7.400   2.857   3.134  0.0239 -0.0581 -0.1931
    7CHTO    C6 2941   7.386   2.940   3.250 -0.7341  0.4595 -0.1582
    7CHTO   H19 2942   7.327   2.890   3.327 -0.8739  1.7040  0.5550
    7CHTO    C8 2943   7.522   2.983   3.310 -0.0172 -0.4023 -0.3100
    7CHTO   H21 2944   7.589   3.007   3.227 -0.4917 -2.0753 -1.1880
    7CHTO    O7 2945   7.574   2.874   3.384 -0.3092  0.2702 -0.0361
    7CHTO    H2 2946   7.665   2.889   3.397  0.2108 -1.0494 -1.8830
    7CHTO   C12 2947   7.506   3.115   3.397  0.0521  0.5195  0.1315
    7CHTO   H25 2948   7.443   3.086   3.484  1.7485 -0.8767  0.9156
    7CHTO    N3 2949   7.639   3.165   3.458  0.1374  0.1207  0.2967
    7CHTO   H12 2950   7.694   3.203   3.373 -1.6431 -0.8883 -1.3278
    7CHTO   H13 2951   7.700   3.084   3.495  0.3146  0.1920  0.1594
    7CHTO   C15 2952   7.425   3.221   3.312 -0.8133  0.5437 -0.1097
    7CHTO   H28 2953   7.478   3.241   3.219  1.7716 -1.6276  0.8305
    7CHTO   O10 2954   7.394   3.370   3.397  0.0753  0.1043  0.1519
    7CHTO    H4 2955   7.342   3.343   3.470 -1.9272 -0.3405 -1.3598
    7CHTO    O5 2956   7.293   3.171   3.281 -0.6646 -0.5386  0.1964
    7CHTO   C10 2957   7.287   3.051   3.195  0.3983 -0.3447  0.3841
    7CHTO   H23 2958   7.308   3.086   3.094  3.0737 -1.0601  0.6516
    7CHTO   C17 2959   7.139   3.002   3.198  0.0504 -0.2198  0.1806
    7CHTO   O12 2960   7.098   2.978   3.330  0.7753  0.0499 -0.0712
    7CHTO    H6 2961   7.106   3.056   3.381 -2.0413  0.6423 -0.4500
    8CHTO  H203 2962   6.760   9.048   2.421  0.0621 -0.9019 -0.3330
    8CHTO   O82 2963   6.746   8.980   2.358 -0.4077  0.0473 -1.2654
    8CHTO  C123 2964   6.642   9.017   2.264  0.5402 -0.0321 -0.2677
    8CHTO  H227 2965   6.628   9.124   2.283  1.7259  0.0323  0.2570
    8CHTO   O77 2966   6.706   9.002   2.142  0.0706 -0.2072  0.0625
    8CHTO  C118 2967   6.633   9.016   2.018  0.2481 -0.5322 -0.5485
    8CHTO  H222 2968   6.603   9.122   2.011 -0.1170 -0.5002  1.3428
    8CHTO  C125 2969   6.726   8.982   1.890 -0.0068  0.1182  0.5343
    8CHTO   O84 2970   6.788   8.853   1.889 -0.5968 -0.0929 -0.0007
    8CHTO  H205 2971   6.854   8.858   1.822  0.8343  0.1388  1.3933
    8CHTO  C114 2972   6.513   8.928   2.014  0.2206 -0.1226  0.8665
    8CHTO  H218 2973   6.543   8.823   2.021  1.0629  0.1097  0.6965
    8CHTO  C116 2974   6.426   8.967   2.140 -0.4161  0.2264  1.0010
    8CHTO  H220 2975   6.399   9.075   2.133  0.7222  0.7421  3.7858
    8CHTO   O79 2976   6.306   8.884   2.127  0.1949  0.5011 -1.0806
    8CHTO  H201 2977   6.333   8.796   2.109  0.8819  0.4371  0.1729
    8CHTO  C120 2978   6.505   8.942   2.274 -0.2792  0.0804  0.1508
    8CHTO  H224 2979   6.526   8.833   2.276  0.0578  0.1109 -0.9267
    8CHTO   N21 2980   6.433   8.978   2.402 -0.2286 -0.0530 -0.2596
    8CHTO  H211 2981   6.495   9.010   2.484 -1.7460 -0.5867  1.0971
    8CHTO  H212 2982   6.369   8.899   2.439 -0.4780 -0.2714 -1.1392
    8CHTO   O75 2983   6.448   8.943   1.890 -0.2348  0.3139  0.5247
    8CHTO  C112 2984   6.361   9.089   1.853 -0.0042 -0.4752  0.0245
    8CHTO  H216 2985   6.419   9.170   1.899 -0.1872 -0.7232  0.6946
    8CHTO   O73 2986   6.232   9.083   1.913 -0.4272 -0.3868  0.4251
    8CHTO  C113 2987   6.161   9.204   1.884 -0.0484  0.4037  0.3283
    8CHTO  H217 2988   6.212   9.292   1.927 -1.0124  0.8889  0.4909
    8CHTO  C124 2989   6.030   9.203   1.966  0.6130  0.1050  0.6392
    8CHTO   O83 2990   5.920   9.120   1.918  0.2766  0.1345  0.3818
    8CHTO  H204 2991   5.865   9.148   1.847 -2.3002  0.0856  2.2880
    8CHTO  C109 2992   6.135   9.222   1.726  0.4674  0.1821  0.2735
    8CHTO  H213 2993   6.072   9.138   1.692  1.5926 -0.8420  0.6760
    8CHTO  C110 2994   6.275   9.226   1.657 -0.8506 -0.8804 -0.4212
    8CHTO  H214 2995   6.321   9.316   1.699  1.0188 -1.6664 -0.7551
    8CHTO   O78 2996   6.246   9.242   1.517  0.3113 -0.1879  0.6445
    8CHTO  H200 2997   6.196   9.174   1.476  0.5938 -1.5912  2.5651
    8CHTO  C111 2998   6.356   9.100   1.694  0.6482  0.0483 -0.4794
    8CHTO  H215 2999   6.310   9.008   1.654  1.0570  0.0801 -1.0429
    8CHTO   N19 3000   6.491   9.105   1.630 -1.1099  0.1274 -0.3387
    8CHTO  H207 3001   6.507   9.008   1.584  1.9401 -0.0418  0.9855
    8CHTO  H208 3002   6.576   9.107   1.696 -1.0040  1.0857 -0.5054
    8CHTO   O74 3003   6.060   9.346   1.705 -0.0675 -0.3164 -0.1134
    8CHTO  C115 3004   5.909   9.332   1.658  0.4298 -0.5086 -0.1654
    8CHTO  H219 3005   5.864   9.238   1.691 -0.5019 -0.1062 -0.2874
    8CHTO   O76 3006   5.805   9.453   1.733 -0.0844  0.1598 -0.2005
    8CHTO  C122 3007   5.808   9.583   1.678 -0.0419 -0.1893  0.2147
    8CHTO  H226 3008   5.899   9.623   1.723  1.7523 -0.4982 -2.9546
    8CHTO  C126 3009   5.694   9.674   1.737 -0.2761  0.1021 -1.0031
    8CHTO   O85 3010   5.703   9.684   1.878 -0.9423  0.0713 -0.2117
    8CHTO  H206 3011   5.784   9.726   1.899 -0.4930 -1.1728  0.5588
    8CHTO  C121 3012   5.790   9.578   1.523  0.0267  0.0197  0.8351
    8CHTO  H225 3013   5.690   9.537   1.496 -0.5274  3.0898 -2.0041
    8CHTO   O81 3014   5.793   9.707   1.466 -0.3678 -0.2784 -0.2003
    8CHTO  H202 3015   5.738   9.763   1.516 -0.5798  0.0622 -0.8085
    8CHTO  C119 3016   5.913   9.489   1.459 -0.1336  0.2444  0.0529
    8CHTO  H223 3017   5.909   9.491   1.350  0.0391  1.1133  0.0586
    8CHTO  C117 3018   5.904   9.339   1.501  0.4561 -0.7886  0.9812
    8CHTO  H221 3019   5.991   9.283   1.468  0.4396 -0.5777  0.5808
    8CHTO   N20 3020   5.780   9.265   1.447 -0.1354 -0.4973 -0.8263
    8CHTO  H209 3021   5.767   9.284   1.341 -0.0180 -2.4805 -1.2069
    8CHTO  H210 3022   5.691   9.288   1.504  0.6200  0.3500  0.0123
    8CHTO   O80 3023   6.070   9.558   1.487  0.0509 -0.0180 -0.5297
    8CHTO  C103 3024   6.103   9.707   1.437 -0.4252 -0.2890 -0.2522
    8CHTO  H190 3025   6.016   9.754   1.389 -1.0185 -0.5955  0.5165
    8CHTO  C101 3026   6.152   9.816   1.532  0.3854  0.2011 -0.0555
    8CHTO  H188 3027   6.252   9.787   1.564 -0.1049  0.0920  1.4465
    8CHTO   O68 3028   6.045   9.839   1.647  1.1201  0.6305 -0.0803
    8CHTO  H168 3029   5.974   9.895   1.621 -0.7426 -1.8115 -0.5068
    8CHTO   C99 3030   6.171   9.947   1.445  0.0990  0.3397 -0.0169
    8CHTO  H186 3031   6.073   9.985   1.411 -0.8274 -0.9573  1.1876
    8CHTO   N17 3032   6.219  10.062   1.525  0.0055 -0.0566 -0.9437
    8CHTO  H174 3033   6.326  10.065   1.535  0.1921 -3.4035 -1.3781
    8CHTO  H175 3034   6.177  10.158   1.500  1.7278  0.5721 -1.4592
    8CHTO   C97 3035   6.261   9.928   1.317 -0.4709 -0.4590 -0.6358
    8CHTO  H184 3036   6.366   9.928   1.351 -1.1862 -0.2051  1.6632
    8CHTO   O64 3037   6.225   9.807   1.252 -0.2834 -0.3615 -0.3454
    8CHTO  C104 3038   6.210   9.685   1.330 -0.2678  0.6639  0.0003
    8CHTO  H191 3039   6.305   9.661   1.380 -1.2722 -3.0991  0.1972
    8CHTO  C108 3040   6.188   9.571   1.230  0.0165 -0.0877 -0.5172
    8CHTO   O71 3041   6.070   9.565   1.149  0.6959  0.0723 -0.0122
    8CHTO  H171 3042   6.090   9.509   1.076 -0.6031  0.1915 -0.4596
    8CHTO   O62 3043   6.234  10.016   1.207  0.0769 -0.4013  0.3826
    8CHTO   C91 3044   6.337  10.009   1.104  0.1425  0.0641  0.5353
    8CHTO  H178 3045   6.375   9.907   1.109  0.2054 -0.0522 -1.9117
    8CHTO   C92 3046   6.460  10.099   1.138 -0.0499  0.4047  0.8393
    8CHTO  H179 3047   6.473  10.074   1.244 -1.1721 -3.2365  0.1942
    8CHTO   O66 3048   6.582  10.049   1.071 -0.3811  0.4351 -0.3707
    8CHTO  H166 3049   6.652  10.109   1.088 -0.4757  0.0351  1.5261
    8CHTO   C93 3050   6.444  10.242   1.100  0.0572 -0.7738 -0.2526
    8CHTO  H180 3051   6.546  10.282   1.105 -0.9035  1.6980  0.4510
    8CHTO   N16 3052   6.378  10.325   1.209  0.1201 -0.0831  0.3133
    8CHTO  H172 3053   6.430  10.334   1.303 -1.4596  0.2153  1.1773
    8CHTO  H173 3054   6.362  10.423   1.168 -0.0165  0.3971  1.4964
    8CHTO   C94 3055   6.380  10.262   0.962 -0.1304  0.6296  1.0547
    8CHTO  H181 3056   6.282  10.309   0.963 -0.6882 -0.4137 -0.8757
    8CHTO   O61 3057   6.374  10.135   0.887  0.0674 -0.2013 -0.2737
    8CHTO   C95 3058   6.284  10.044   0.956 -0.0217  0.3464 -0.1746
    8CHTO  H182 3059   6.184  10.087   0.958  0.1633  0.7583  0.6036
    8CHTO  C106 3060   6.279   9.914   0.871  0.9861  0.0574 -0.1438
    8CHTO   O69 3061   6.412   9.880   0.830 -0.2616  0.1005  1.2074
    8CHTO  H169 3062   6.459   9.854   0.907  0.7297 -0.5875  0.3862
    8CHTO   O63 3063   6.478  10.374   0.894 -0.1779  0.3664  0.4284
    8CHTO   C96 3064   6.440  10.422   0.766 -0.1343 -0.3979 -0.0309
    8CHTO  H183 3065   6.341  10.382   0.741  0.1741 -0.2830 -1.4996
    8CHTO   C98 3066   6.520  10.398   0.633 -0.1689 -0.4159 -0.2907
    8CHTO  H185 3067   6.621  10.442   0.636 -0.4157  0.1768 -0.5499
    8CHTO   O67 3068   6.542  10.259   0.599  0.3491 -0.0144 -0.2732
    8CHTO  H167 3069   6.585  10.214   0.670  0.7443 -0.4351 -0.7757
    8CHTO  C102 3070   6.445  10.467   0.508  0.2365  0.0744 -0.2696
    8CHTO  H189 3071   6.365  10.397   0.478 -0.0589  0.7233 -1.0122
    8CHTO   N18 3072   6.525  10.477   0.381  0.0234  0.1161  0.2721
    8CHTO  H176 3073   6.504  10.386   0.328 -1.1444 -0.4052  1.6030
    8CHTO  H177 3074   6.631  10.491   0.393  0.0632  0.4767 -0.5159
    8CHTO  C105 3075   6.386  10.610   0.539  0.6194  0.6428  0.5004
    8CHTO  H192 3076   6.453  10.691   0.510  1.1240 -0.5260 -1.7169
    8CHTO   O65 3077   6.350  10.632   0.675  0.3951  0.0876 -0.5579
    8CHTO  C100 3078   6.435  10.580   0.781 -1.0813  0.0372  0.3286
    8CHTO  H187 3079   6.537  10.618   0.762 -0.6783 -1.0205  0.3669
    8CHTO  C107 3080   6.383  10.640   0.911  0.0599  0.2095  0.6521
    8CHTO   O70 3081   6.375  10.785   0.915  0.0759  0.5136 -0.2035
    8CHTO  H170 3082   6.363  10.806   0.825  1.5428 -0.3430 -0.6240
    8CHTO   O57 3083   6.252  10.614   0.447  0.2270 -0.2768 -0.4361
    8CHTO   C85 3084   6.189  10.736   0.407 -0.2899  0.2256 -0.7078
    8CHTO  H157 3085   6.272  10.792   0.359  1.3502 -1.2077  0.3989
    8CHTO   C83 3086   6.149  10.816   0.536  0.1683  0.0206  0.5678
    8CHTO  H155 3087   6.239  10.834   0.596  0.1866 -2.0159  1.1789
    8CHTO   O56 3088   6.064  10.739   0.620 -0.4718  0.4454  0.2588
    8CHTO  H135 3089   6.018  10.804   0.670 -1.7444  1.1025 -1.7133
    8CHTO   C81 3090   6.100  10.954   0.484  0.3597  0.2149 -0.3736
    8CHTO  H153 3091   6.182  11.001   0.430  1.0959  0.8316  1.2478
    8CHTO   N14 3092   6.082  11.046   0.599 -0.1497  0.3483 -0.0717
    8CHTO  H141 3093   6.175  11.097   0.614  0.2545 -0.2229 -0.6287
    8CHTO  H142 3094   6.051  10.989   0.684  1.0440  0.7456  0.6353
    8CHTO   C79 3095   5.979  10.939   0.383 -0.0895 -0.1439  0.2827
    8CHTO  H151 3096   5.959  11.038   0.341 -1.0984  0.4190  2.0183
    8CHTO   O52 3097   6.014  10.846   0.273  0.0478  0.4830  0.3048
    8CHTO   C86 3098   6.069  10.714   0.311 -0.1629  0.0292  0.5451
    8CHTO  H158 3099   5.982  10.662   0.358  0.3226 -0.9898  0.3402
    8CHTO   C90 3100   6.128  10.624   0.189 -0.6667  0.5996 -0.9410
    8CHTO   O60 3101   6.254  10.668   0.128  0.0033  0.0801  0.1876
    8CHTO  H138 3102   6.312  10.708   0.190  2.4737 -0.4360 -1.7276
    8CHTO   O50 3103   5.862  10.892   0.450 -0.2721 -0.3079  0.0124
    8CHTO   C73 3104   5.727  10.857   0.468 -0.4758 -0.0461  0.8639
    8CHTO  H145 3105   5.681  10.832   0.371 -0.1153 -0.0736  0.6976
    8CHTO   C74 3106   5.636  10.973   0.513  0.1167 -0.4351 -0.3937
    8CHTO  H146 3107   5.642  11.051   0.436 -1.4094 -3.0872 -3.3394
    8CHTO   O54 3108   5.498  10.929   0.513  0.3403 -0.2732  0.6070
    8CHTO  H133 3109   5.487  10.864   0.580  1.9046  1.8494  3.0323
    8CHTO   C75 3110   5.681  11.018   0.656 -0.8761 -0.0135 -0.1486
    8CHTO  H147 3111   5.780  11.065   0.650 -0.5472 -0.6362  0.3843
    8CHTO   N13 3112   5.607  11.131   0.709 -0.7809 -0.1159  0.1295
    8CHTO  H139 3113   5.505  11.107   0.737 -0.5931 -1.9253 -0.6796
    8CHTO  H140 3114   5.651  11.154   0.805  2.6952  0.7803 -1.6071
    8CHTO   C76 3115   5.692  10.897   0.757 -0.0982 -0.2950 -0.6602
    8CHTO  H148 3116   5.590  10.862   0.776  0.4999 -2.4261 -1.2176
    8CHTO   O49 3117   5.770  10.794   0.700 -0.3687  0.6117  0.0190
    8CHTO   C77 3118   5.714  10.745   0.577 -0.3547  0.4238  0.3360
    8CHTO  H149 3119   5.609  10.718   0.585 -0.6261  1.2053 -0.4464
    8CHTO   C88 3120   5.779  10.609   0.540  0.2396  0.4832 -0.5079
    8CHTO   O58 3121   5.703  10.502   0.646  0.2581  0.4594  0.1380
    8CHTO  H136 3122   5.753  10.423   0.654  2.3558  1.8079  0.7255
    8CHTO   O51 3123   5.773  10.947   0.883  0.0163  0.2047  0.3473
    8CHTO   C78 3124   5.757  10.849   1.005  0.0159 -0.1047  0.3482
    8CHTO  H150 3125   5.719  10.750   0.973  2.9838 -0.9004 -0.8716
    8CHTO   C80 3126   5.650  10.903   1.099  0.2482  0.3821  0.3896
    8CHTO  H152 3127   5.669  11.009   1.127 -1.2099  0.0935  2.5841
    8CHTO   O55 3128   5.523  10.899   1.026 -0.1368  0.3938 -0.2658
    8CHTO  H134 3129   5.514  10.822   0.973 -0.4738 -0.1573  0.5784
    8CHTO   C84 3130   5.638  10.818   1.231 -0.2788  0.2855 -0.1054
    8CHTO  H156 3131   5.606  10.716   1.209  1.7791 -0.3965 -0.0560
    8CHTO   N15 3132   5.535  10.873   1.328  0.0071  0.3041  0.4066
    8CHTO  H143 3133   5.518  10.975   1.298 -0.3062  0.2485  0.4000
    8CHTO  H144 3134   5.564  10.876   1.431 -0.4734 -0.4950  0.5672
    8CHTO   C87 3135   5.785  10.814   1.290 -0.5053 -0.8798  0.3054
    8CHTO  H159 3136   5.821  10.917   1.294  0.0669 -1.1153  1.2797
    8CHTO   O53 3137   5.876  10.742   1.184 -0.1414  0.0682  0.0894
    8CHTO   C82 3138   5.892  10.831   1.073  0.4373  0.5303 -0.6341
    8CHTO  H154 3139   5.928  10.928   1.108 -0.7202  1.4979 -2.0367
    8CHTO   C89 3140   5.993  10.777   0.979  0.4720 -0.2673 -0.4596
    8CHTO   O59 3141   5.987  10.640   0.942 -0.3319 -0.3126 -0.1322
    8CHTO  H137 3142   6.074  10.613   0.919 -0.2130  1.6111 -2.0434
    8CHTO   O45 3143   5.803  10.750   1.431  0.3035  0.7012 -0.4750
    8CHTO   C67 3144   5.799  10.606   1.447  0.7764  0.9509  0.1262
    8CHTO  H124 3145   5.723  10.573   1.378 -1.0585  1.2084  1.9764
    8CHTO   C65 3146   5.934  10.535   1.427  0.0777  0.6463  0.5884
    8CHTO  H122 3147   5.995  10.606   1.372 -0.2792  0.5949  0.1304
    8CHTO   O44 3148   5.908  10.410   1.354 -0.4667 -0.1921  0.2162
    8CHTO  H102 3149   5.935  10.414   1.264 -2.0598 -0.1362 -0.2779
    8CHTO   C63 3150   6.000  10.519   1.570  0.9228 -0.0987 -0.0283
    8CHTO  H120 3151   5.999  10.614   1.624 -0.6198  0.4689 -1.0191
    8CHTO   N11 3152   6.149  10.483   1.572 -0.5670  0.4353 -0.0396
    8CHTO  H108 3153   6.210  10.559   1.529 -0.3033 -0.5372 -1.4319
    8CHTO  H109 3154   6.163  10.384   1.534 -1.5541  0.2046  0.1798
    8CHTO   C61 3155   5.917  10.414   1.659 -0.4388 -0.0008 -0.4085
    8CHTO  H118 3156   5.949  10.431   1.763  0.2286  2.1160 -0.9188
    8CHTO   O40 3157   5.766  10.435   1.652  0.1297 -0.2570 -0.1293
    8CHTO   C68 3158   5.739  10.566   1.596  0.0768 -0.2172 -0.0710
    8CHTO  H125 3159   5.781  10.633   1.673  0.4221  0.1000 -0.5333
    8CHTO   C72 3160   5.584  10.581   1.597 -0.7550  0.5098  0.0795
    8CHTO   O48 3161   5.557  10.719   1.594  0.4392  0.1285  0.2457
    8CHTO  H105 3162   5.466  10.741   1.603  0.5655 -0.2614  2.6642
    8CHTO   O38 3163   5.947  10.281   1.614 -0.3783  0.0990 -0.0709
    8CHTO   C55 3164   5.863  10.167   1.640 -0.6946 -0.2236 -0.1400
    8CHTO  H112 3165   5.940  10.089   1.654 -0.3878  0.7340  4.5058
    8CHTO   C56 3166   5.763  10.146   1.512 -0.3705 -0.2016 -0.2293
    8CHTO  H113 3167   5.706  10.238   1.496 -0.8127 -0.5556 -0.7039
    8CHTO   O42 3168   5.843  10.133   1.393  0.2011 -0.0892  0.9439
    8CHTO  H100 3169   5.856  10.221   1.362 -2.0960 -0.1136 -0.2075
    8CHTO   C57 3170   5.660  10.030   1.537 -0.2303 -0.3795 -0.4817
    8CHTO  H114 3171   5.723   9.942   1.547  0.9980  0.6217  0.8523
    8CHTO   N10 3172   5.555   9.998   1.435  0.2615  0.0713 -1.3584
    8CHTO  H106 3173   5.507  10.092   1.410  0.6492  0.2300 -1.5174
    8CHTO  H107 3174   5.604   9.958   1.347 -0.3038 -0.7490 -1.3044
    8CHTO   C58 3175   5.602  10.059   1.680 -0.0712 -0.2827 -0.2508
    8CHTO  H115 3176   5.554  10.159   1.677 -1.7049 -0.8615  3.3886
    8CHTO   O37 3177   5.704  10.052   1.779  0.2648 -0.3758  0.2930
    8CHTO   C59 3178   5.787  10.169   1.776 -0.4517 -0.4017 -1.2609
    8CHTO  H116 3179   5.721  10.255   1.786  0.9201  0.8849 -2.8514
    8CHTO   C70 3180   5.873  10.154   1.899 -0.1857 -0.7999  0.2506
    8CHTO   O46 3181   5.977  10.251   1.911 -0.2449  0.0094 -0.3879
    8CHTO  H103 3182   5.954  10.334   1.873 -1.5404 -0.1365  0.0316
    8CHTO   O39 3183   5.488   9.947   1.741 -0.6049 -0.9175 -0.1766
    8CHTO   C60 3184   5.365  10.010   1.787  0.9539 -0.6202  0.4381
    8CHTO  H117 3185   5.358  10.113   1.751  0.2800 -0.6588  0.4521
    8CHTO   C62 3186   5.232   9.930   1.739  0.4773  0.7131 -0.0296
    8CHTO  H119 3187   5.246   9.919   1.630  0.4052 -0.6618  0.0934
    8CHTO   O43 3188   5.234   9.795   1.800 -0.3162 -0.9137  0.3399
    8CHTO  H101 3189   5.170   9.743   1.755 -0.3955 -0.6220  0.1200
    8CHTO   C66 3190   5.107  10.021   1.785 -0.5946 -0.3873  0.2773
    8CHTO  H123 3191   5.127  10.122   1.751 -1.3609 -0.6121 -0.8727
    8CHTO   N12 3192   4.981   9.965   1.726  0.4006 -0.1162  0.5694
    8CHTO  H110 3193   4.927   9.901   1.795 -0.7845 -1.6450 -1.6869
    8CHTO  H111 3194   4.921  10.044   1.685 -0.1682 -0.6375  0.3751
    8CHTO   C69 3195   5.098  10.039   1.934 -0.7677  0.2412 -0.4067
    8CHTO  H126 3196   5.074   9.945   1.988 -0.2815  0.3232 -0.0365
    8CHTO   O41 3197   5.244  10.081   2.001  0.0066  0.0327  0.3210
    8CHTO   C64 3198   5.362  10.013   1.941 -0.0599 -0.6137  0.1386
    8CHTO  H121 3199   5.374   9.914   1.988 -0.6894 -0.4100  0.7388
    8CHTO   C71 3200   5.485  10.094   2.001  0.3829  0.4222 -0.1981
    8CHTO   O47 3201   5.476  10.237   1.956  0.1539 -0.2101 -0.1921
    8CHTO  H104 3202   5.385  10.260   1.960  0.6542  1.4320  3.2094
    8CHTO   O34 3203   5.000  10.157   1.974 -0.1099 -0.3170 -0.2759
    8CHTO   C49 3204   4.960  10.296   2.002 -1.2079 -0.0926  0.8614
    8CHTO   H91 3205   4.980  10.303   2.109 -0.0506 -2.1589  0.8184
    8CHTO   C47 3206   4.808  10.310   1.975 -0.4286  0.4578  0.2108
    8CHTO   H89 3207   4.794  10.414   2.009  2.2832  1.0308 -0.2752
    8CHTO   O33 3208   4.740  10.216   2.064  0.5292  0.3173 -0.0342
    8CHTO   H70 3209   4.653  10.243   2.084 -0.0689  0.1606 -2.2728
    8CHTO   C45 3210   4.777  10.291   1.819 -0.0345 -0.3133  0.2706
    8CHTO   H87 3211   4.812  10.189   1.797 -1.4945 -0.7287 -0.1651
    8CHTO    N8 3212   4.634  10.295   1.790 -0.1202 -0.0749  0.5137
    8CHTO   H75 3213   4.578  10.223   1.848  0.3269  0.5619  1.7390
    8CHTO   H76 3214   4.591  10.390   1.818  0.2231  0.5235 -0.9268
    8CHTO   C43 3215   4.860  10.400   1.734 -0.4262  0.1416 -0.3471
    8CHTO   H85 3216   4.845  10.372   1.630 -0.6712 -3.0802  0.5109
    8CHTO   O29 3217   5.004  10.395   1.767  0.2878 -0.2379  0.1065
    8CHTO   C50 3218   5.043  10.390   1.907 -0.7515  0.3380 -0.2002
    8CHTO   H92 3219   5.148  10.358   1.913 -0.6522  0.8703  0.9906
    8CHTO   C54 3220   5.055  10.540   1.956 -0.1910 -0.1169 -0.5038
    8CHTO   O36 3221   5.159  10.616   1.899  0.0342  0.3440  0.1350
    8CHTO   H72 3222   5.155  10.708   1.920 -0.4857  0.5357 -0.7613
    8CHTO   O27 3223   4.822  10.528   1.763 -0.5636 -0.0993  0.3648
    8CHTO   C37 3224   4.785  10.632   1.674  0.3673 -0.4649 -0.3258
    8CHTO   H79 3225   4.736  10.595   1.583  0.4539  1.6177 -1.2405
    8CHTO   C38 3226   4.697  10.742   1.755 -0.3168 -1.1879 -0.3077
    8CHTO   H80 3227   4.755  10.777   1.842 -1.1764 -1.7648  0.5181
    8CHTO   O31 3228   4.581  10.667   1.801 -0.2795 -0.5182  0.4041
    8CHTO   H68 3229   4.618  10.606   1.861  0.6306  1.3417  1.7867
    8CHTO   C39 3230   4.658  10.854   1.655  0.7996  0.0843  0.5980
    8CHTO   H81 3231   4.592  10.808   1.581  0.9558  0.1209  0.4347
    8CHTO    N7 3232   4.569  10.967   1.706 -0.0237 -0.1678 -0.1192
    8CHTO   H73 3233   4.547  11.048   1.638 -1.4640  0.9372  1.5978
    8CHTO   H74 3234   4.478  10.929   1.751  0.0162  1.5543  1.5291
    8CHTO   C40 3235   4.791  10.914   1.583 -0.1687 -0.4111 -0.1319
    8CHTO   H82 3236   4.846  10.976   1.654  1.6185 -1.5027 -0.5114
    8CHTO   O26 3237   4.869  10.813   1.531  0.1829  0.2800 -0.1992
    8CHTO   C41 3238   4.914  10.708   1.621 -0.2547 -0.5821  0.0920
    8CHTO   H83 3239   4.966  10.757   1.704 -0.1175  0.1701 -0.4301
    8CHTO   C52 3240   5.020  10.626   1.537 -0.0109 -0.3748  0.7912
    8CHTO   O35 3241   5.155  10.723   1.505  0.0854 -0.8878  0.3580
    8CHTO   H71 3242   5.229  10.697   1.556 -0.1111 -0.4715  0.8562
    8CHTO   O28 3243   4.750  11.006   1.471  0.0577  0.3652  0.5735
    8CHTO   C42 3244   4.775  10.987   1.324  0.0613 -0.0261 -0.0356
    8CHTO   H84 3245   4.725  11.075   1.284  2.5554  1.6379  0.3756
    8CHTO   C44 3246   4.706  10.867   1.253 -0.2431  0.4307  0.1504
    8CHTO   H86 3247   4.752  10.775   1.289 -2.9960 -0.6629  1.0394
    8CHTO   O32 3248   4.569  10.873   1.289 -0.8672  0.4759 -0.2792
    8CHTO   H69 3249   4.534  10.952   1.252 -1.1646 -0.3264 -1.7619
    8CHTO   C48 3250   4.726  10.865   1.090  0.7475 -0.0007  0.7061
    8CHTO   H90 3251   4.665  10.940   1.040  1.5873  1.2653  1.5502
    8CHTO    N9 3252   4.675  10.737   1.031  0.3455 -0.2051  0.5423
    8CHTO   H77 3253   4.643  10.736   0.928 -0.0426 -1.8279  0.6708
    8CHTO   H78 3254   4.609  10.682   1.096  1.7672 -1.1993  1.1828
    8CHTO   C51 3255   4.883  10.891   1.063 -0.8692  0.2434  0.2290
    8CHTO   H93 3256   4.941  10.806   1.097  0.1972  0.1114 -1.8088
    8CHTO   O30 3257   4.934  11.012   1.120  0.0019  0.0764  0.5266
    8CHTO   C46 3258   4.922  11.007   1.285  0.2521  0.2910  0.1410
    8CHTO   H88 3259   4.978  10.918   1.317  0.5129  0.3345 -0.1965
    8CHTO   C53 3260   4.974  11.134   1.336 -0.2016  0.3782  0.0385
    8CHTO   O72 3261   5.017  11.136   1.474 -0.4208  0.3485 -0.4947
    8CHTO  H199 3262   4.940  11.119   1.525 -0.9085  1.9599 -0.6445
    8CHTO   O22 3263   4.911  10.900   0.919  0.4939  0.3082 -0.3272
    8CHTO   C31 3264   4.994  10.812   0.839  0.1906 -0.6484 -0.2244
    8CHTO   H59 3265   5.029  10.879   0.757  0.4870 -1.0404 -0.4157
    8CHTO   C29 3266   5.124  10.753   0.901 -0.2194 -0.5085  0.1352
    8CHTO   H57 3267   5.113  10.696   0.995 -0.6652  0.2717  0.5653
    8CHTO   O21 3268   5.200  10.871   0.934  0.2452 -0.5093  0.2005
    8CHTO   H37 3269   5.264  10.853   1.000  0.5224 -0.9975 -0.1986
    8CHTO   C27 3270   5.217  10.681   0.800  0.9905 -0.1174 -0.0756
    8CHTO   H55 3271   5.240  10.747   0.716  0.2161 -0.6370 -0.6973
    8CHTO    N5 3272   5.345  10.629   0.859 -0.5781 -0.2638  0.4592
    8CHTO   H43 3273   5.324  10.562   0.941  1.8435 -1.2628  0.2825
    8CHTO   H44 3274   5.399  10.717   0.893 -1.4711 -0.8372  3.5544
    8CHTO   C25 3275   5.124  10.569   0.730  0.1726 -0.3616 -0.4493
    8CHTO   H53 3276   5.097  10.496   0.808  1.7083  1.0492  1.4438
    8CHTO   O17 3277   4.995  10.610   0.692 -0.1948  0.1592 -0.1171
    8CHTO   C32 3278   4.910  10.696   0.769  0.5535 -0.3681 -0.3380
    8CHTO   H60 3279   4.871  10.632   0.847 -1.0444 -0.7756 -1.4522
    8CHTO   C36 3280   4.808  10.767   0.683  0.1880 -0.5587 -0.2090
    8CHTO   O25 3281   4.857  10.844   0.570 -0.9079  0.2093  0.4108
    8CHTO   H40 3282   4.798  10.841   0.496 -0.6708  0.9516  0.1938
    8CHTO   O15 3283   5.192  10.491   0.632 -0.1532  0.3842 -0.3030
    8CHTO   C19 3284   5.210  10.508   0.488 -0.5482 -0.2141  0.1166
    8CHTO   H47 3285   5.113  10.463   0.463 -1.8268  1.4134  2.0207
    8CHTO   C20 3286   5.248  10.653   0.425  0.0986 -0.2562 -0.5144
    8CHTO   H48 3287   5.337  10.697   0.473 -2.1727  2.0608  1.7461
    8CHTO   O19 3288   5.134  10.730   0.462  0.2003  0.0128 -0.0108
    8CHTO   H35 3289   5.072  10.726   0.391 -0.9387  1.5109  0.8802
    8CHTO   C21 3290   5.280  10.640   0.268 -0.1878  0.1502  0.1876
    8CHTO   H49 3291   5.188  10.611   0.217  0.7132 -1.7777 -0.4001
    8CHTO    N4 3292   5.342  10.761   0.219 -0.3795  0.4578  0.5155
    8CHTO   H41 3293   5.269  10.827   0.263  0.7349  3.4924 -1.9876
    8CHTO   H42 3294   5.437  10.772   0.269 -1.0980  3.2060  1.3397
    8CHTO   C22 3295   5.373  10.520   0.250 -0.1892  0.0742  0.0719
    8CHTO   H50 3296   5.466  10.537   0.304  0.2204  0.2440 -0.6708
    8CHTO   O14 3297   5.304  10.407   0.305  0.1856 -0.1392  0.8403
    8CHTO   C23 3298   5.315  10.406   0.443 -0.1714 -0.2111 -0.3135
    8CHTO   H51 3299   5.416  10.431   0.478 -0.7775 -0.9756  2.1130
    8CHTO   C34 3300   5.286  10.262   0.494  0.1328  0.2393  0.0105
    8CHTO   O23 3301   5.369  10.171   0.424 -0.2492  0.5394 -0.3682
    8CHTO   H38 3302   5.320  10.136   0.352  1.9258 -1.1374 -1.0943
    8CHTO   O16 3303   5.399  10.472   0.112  0.6304  0.3206  0.4261
    8CHTO   C24 3304   5.513  10.381   0.111 -0.0331  0.9988  0.3856
    8CHTO   H52 3305   5.546  10.355   0.211 -2.4308  1.0237  1.2139
    8CHTO   C26 3306   5.632  10.455   0.049  0.5781  0.7686  0.8016
    8CHTO   H54 3307   5.599  10.518  -0.036  3.4076  0.1630 -0.8188
    8CHTO   O20 3308   5.688  10.548   0.142  0.0281 -0.0566  0.1078
    8CHTO   H36 3309   5.751  10.507   0.198  0.6444  0.6737 -0.0375
    8CHTO   C30 3310   5.749  10.359  -0.004  0.2189 -0.1758 -0.7444
    8CHTO   H58 3311   5.812  10.330   0.081 -0.0679 -0.3270 -0.5827
    8CHTO    N6 3312   5.838  10.425  -0.104 -0.0034  0.0276  0.2586
    8CHTO   H45 3313   5.919  10.367  -0.145 -1.4664 -0.2048 -2.4164
    8CHTO   H46 3314   5.874  10.517  -0.062  0.6746  1.0308 -2.4787
    8CHTO   C33 3315   5.703  10.221  -0.067 -0.3973  0.2086  0.1987
    8CHTO   H61 3316   5.665  10.238  -0.168  0.2864 -2.4307 -0.5231
    8CHTO   O18 3317   5.595  10.163   0.010  0.4866 -0.3056 -0.4668
    8CHTO   C28 3318   5.480  10.244   0.029  0.5857  0.4451  0.5992
    8CHTO   H56 3319   5.437  10.274  -0.066  2.4076  1.3777  0.0555
    8CHTO   C35 3320   5.375  10.162   0.102 -0.5335  0.3208 -0.0642
    8CHTO   O24 3321   5.325  10.055   0.012 -0.2989  0.1029  0.3056
    8CHTO   H39 3322   5.240  10.034   0.045 -0.3164  1.1890  0.9858
    8CHTO    O9 3323   5.811  10.128  -0.086 -0.0023  0.7435  0.1018
    8CHTO   C13 3324   5.766   9.981  -0.148 -0.5093 -0.1965 -0.7198
    8CHTO   H26 3325   5.686   9.989  -0.225 -0.9932  1.1708 -0.0913
    8CHTO   C11 3326   5.730   9.872  -0.034 -0.1612  0.1098  0.0058
    8CHTO   H24 3327   5.620   9.871  -0.023 -0.4119  0.0503 -2.3969
    8CHTO    O8 3328   5.781   9.928   0.089  0.1345 -0.7236 -0.3401
    8CHTO    H3 3329   5.874   9.916   0.089  0.1255 -0.8049 -0.5637
    8CHTO    C9 3330   5.786   9.734  -0.073 -0.1148  1.0904 -0.0576
    8CHTO   H22 3331   5.745   9.711  -0.172 -0.5366 -3.6618  1.0956
    8CHTO    N2 3332   5.746   9.620   0.010 -0.0304  0.2506  0.1495
    8CHTO   H10 3333   5.766   9.657   0.110  0.8241  0.7622 -0.2024
    8CHTO   H11 3334   5.640   9.610  -0.010 -0.5250  2.7939  1.3091
    8CHTO    C7 3335   5.941   9.746  -0.080  0.1925 -0.4112 -0.2505
    8CHTO   H20 3336   5.976   9.650  -0.125  1.5157 -1.2998  2.5435
    8CHTO    O4 3337   5.982   9.857  -0.157  0.2827  0.1420  0.4421
    8CHTO   C14 3338   5.889   9.930  -0.238 -1.0016 -1.0972 -0.0390
    8CHTO   H27 3339   5.855   9.863  -0.319 -0.6384 -0.5434 -0.6472
    8CHTO   C18 3340   5.965  10.044  -0.314 -0.3182  0.4696  0.6643
    8CHTO   O13 3341   5.881  10.131  -0.399  0.6396 -0.2096  0.1333
    8CHTO    H7 3342   5.792  10.113  -0.377  0.7858 -1.2517 -0.0949
    8CHTO    O2 3343   6.010   9.763   0.067 -0.0717 -0.5627  0.6347
    8CHTO    C1 3344   6.144   9.698   0.086 -0.0665  0.8154 -0.2648
    8CHTO   H14 3345   6.187   9.751   0.173  0.2042  1.0975 -0.5697
    8CHTO    C2 3346   6.252   9.712  -0.039 -0.5173  1.2733  0.0982
    8CHTO   H15 3347   6.208   9.672  -0.132  1.1841 -2.6700  0.8839
    8CHTO    O6 3348   6.266   9.858  -0.052 -0.0718 -0.1738  0.0221
    8CHTO    H1 3349   6.258   9.892  -0.139 -1.7065  1.2297  0.6854
    8CHTO    C3 3350   6.384   9.633   0.003  0.0427 -0.4422 -0.5164
    8CHTO   H16 3351   6.437   9.678   0.088  0.0030  0.4113 -0.9323
    8CHTO    N1 3352   6.491   9.646  -0.106 -0.1378  0.8731 -0.7055
    8CHTO    H8 3353   6.577   9.704  -0.075  2.4569 -1.7786 -2.6807
    8CHTO    H9 3354   6.516   9.545  -0.135  0.5801  0.5780  0.9015
    8CHTO    C4 3355   6.354   9.485   0.046 -0.9049  0.3568 -0.1285
    8CHTO   H17 3356   6.330   9.425  -0.042 -2.0749 -0.5101  0.7728
    8CHTO    O1 3357   6.251   9.469   0.143  0.2158 -0.5577 -0.2939
    8CHTO    C5 3358   6.124   9.543   0.131 -0.4232  0.1435  0.5391
    8CHTO   H18 3359   6.068   9.502   0.047 -2.4448  1.3002  1.2994
    8CHTO   C16 3360   6.032   9.537   0.255  0.5450  0.7334  0.1361
    8CHTO   O11 3361   6.102   9.601   0.358  0.7746  0.5002  0.2400
    8CHTO    H5 3362   6.136   9.688   0.343 -1.1769  1.3071  0.3178
    8CHTO    O3 3363   6.468   9.416   0.113 -0.2146 -0.0268  0.9041
    8CHTO    C6 3364   6.503   9.275   0.069  0.6454 -0.0986 -0.5419
    8CHTO   H19 3365   6.432   9.228   0.002  0.4954 -1.1345  0.3353
    8CHTO    C8 3366   6.642   9.282   0.006 -0.2215  0.4162  0.3782
    8CHTO   H21 3367   6.715   9.337   0.065 -0.6301  0.7454  0.5777
    8CHTO    O7 3368   6.620   9.345  -0.123  0.2447 -0.0174  0.3911
    8CHTO    H2 3369   6.561   9.297  -0.177 -1.3671  1.7160  0.5322
    8CHTO   C12 3370   6.707   9.137  -0.018  0.6021  0.3280 -0.5257
    8CHTO   H25 3371   6.646   9.084  -0.094  2.5406 -1.3626 -0.9367
    8CHTO    N3 3372   6.852   9.143  -0.063  0.2061 -0.9865  0.0066
    8CHTO   H12 3373   6.921   9.074  -0.016  1.2411 -0.3064 -0.4896
    8CHTO   H13 3374   6.858   9.116  -0.167  1.0902  2.2743 -0.8366
    8CHTO   C15 3375   6.692   9.064   0.121  0.1462  0.2114  0.0366
    8CHTO   H28 3376   6.753   9.108   0.200  0.8678 -1.4937  0.4655
    8CHTO   O10 3377   6.733   8.899   0.128  0.2748 -0.8008  0.2103
    8CHTO    H4 3378   6.757   8.879   0.216  1.4600  1.5907  0.4748
    8CHTO    O5 3379   6.559   9.063   0.178  0.1480  0.5186 -0.3316
    8CHTO   C10 3380   6.503   9.192   0.199 -0.3107 -0.3686  0.1822
    8CHTO   H23 3381   6.560   9.237   0.281 -0.8336  0.4788  0.0887
    8CHTO   C17 3382   6.363   9.169   0.249 -0.3684  0.1255 -0.5969
    8CHTO   O12 3383   6.276   9.110   0.163 -0.1492  0.0166  0.1219
    8CHTO    H6 3384   6.224   9.049   0.212 -0.6746 -0.3916 -0.9282
    9CHTO  H203 3385   8.076   3.873   0.232 -0.1629 -0.1291  0.7267
    9CHTO   O82 3386   8.077   3.890   0.140 -0.8243 -0.2131  0.7066
    9CHTO  C123 3387   8.094   4.027   0.121  0.0724  0.1728  0.5795
    9CHTO  H227 3388   8.199   4.059   0.133  0.0259  0.8169 -0.5807
    9CHTO   O77 3389   8.044   4.035  -0.016 -0.2841 -0.1544 -0.0342
    9CHTO  C118 3390   8.060   4.168  -0.071 -0.2194  0.9588  0.8949
    9CHTO  H222 3391   8.165   4.188  -0.047 -0.5875  3.4328  0.6397
    9CHTO  C125 3392   8.049   4.165  -0.232  1.3255 -0.0912 -0.1495
    9CHTO   O84 3393   8.167   4.107  -0.291 -0.3111  0.1569  0.1410
    9CHTO  H205 3394   8.238   4.123  -0.232  1.2672  2.1335 -2.1662
    9CHTO  C114 3395   7.968   4.266   0.000  0.5953 -0.0163 -0.2575
    9CHTO  H218 3396   7.865   4.236  -0.015  0.6599  0.2408 -1.2616
    9CHTO  C116 3397   8.001   4.264   0.149  0.0710  0.8633 -1.1999
    9CHTO  H220 3398   8.102   4.309   0.163  0.1737  1.1120 -2.7395
    9CHTO   O79 3399   7.908   4.352   0.212 -0.1190 -0.0618 -0.2288
    9CHTO  H201 3400   7.956   4.392   0.282  0.3064 -0.5806 -0.2223
    9CHTO  C120 3401   8.002   4.113   0.204 -0.8313  0.2318  0.8546
    9CHTO  H224 3402   7.901   4.067   0.209 -0.8010 -0.0811 -1.0480
    9CHTO   N21 3403   8.048   4.122   0.348  0.0880 -0.2708 -0.0071
    9CHTO  H211 3404   7.975   4.164   0.415 -1.2100  1.9192 -2.6940
    9CHTO  H212 3405   8.150   4.155   0.360  0.3611 -1.4957  1.2019
    9CHTO   O75 3406   8.002   4.391  -0.065 -0.1751 -0.2158  0.1880
    9CHTO  C112 3407   7.874   4.491  -0.096 -0.8340  0.2301 -0.4550
    9CHTO  H216 3408   7.800   4.462  -0.020 -1.3528  0.6208 -0.8121
    9CHTO   O73 3409   7.831   4.461  -0.230 -0.4800  0.2969  0.1731
    9CHTO  C113 3410   7.740   4.543  -0.296 -0.2377  0.4515 -0.6796
    9CHTO  H217 3411   7.634   4.525  -0.270  0.2750 -1.2442  0.2347
    9CHTO  C124 3412   7.760   4.505  -0.437 -0.2436  0.4428  0.0819
    9CHTO   O83 3413   7.710   4.375  -0.476 -0.6949  0.1462  0.0882
    9CHTO  H204 3414   7.749   4.300  -0.436 -1.2541 -0.1450  0.0910
    9CHTO  C109 3415   7.778   4.692  -0.286 -0.0186  0.2274 -0.1774
    9CHTO  H213 3416   7.873   4.708  -0.339  0.9345  1.3920  1.7985
    9CHTO  C110 3417   7.801   4.736  -0.139 -0.7885 -0.2133 -0.7964
    9CHTO  H214 3418   7.713   4.714  -0.079 -0.5931  1.8409  0.2947
    9CHTO   O78 3419   7.831   4.871  -0.135 -0.1561  0.1466  0.4413
    9CHTO  H200 3420   7.758   4.924  -0.162 -1.6515 -2.5313 -1.0952
    9CHTO  C111 3421   7.914   4.645  -0.073  0.1430  0.6985  0.3414
    9CHTO  H215 3422   8.010   4.659  -0.125 -0.0976  0.8813 -0.0580
    9CHTO   N19 3423   7.937   4.667   0.071  0.4958  0.1483  0.3274
    9CHTO  H207 3424   7.847   4.660   0.130  0.4173 -0.2076  0.1648
    9CHTO  H208 3425   8.003   4.586   0.101  0.2787  0.3479  1.3732
    9CHTO   O74 3426   7.675   4.773  -0.353 -0.2040  0.4089  0.4537
    9CHTO  C115 3427   7.715   4.866  -0.473 -0.0277  0.9954  0.2358
    9CHTO  H219 3428   7.821   4.892  -0.468 -0.2013  1.2706  3.0778
    9CHTO   O76 3429   7.704   4.778  -0.625  0.3091  0.3530  0.0258
    9CHTO  C122 3430   7.571   4.738  -0.648 -0.3975 -0.1172  0.4655
    9CHTO  H226 3431   7.547   4.662  -0.575 -2.5485  0.7616  0.6892
    9CHTO  C126 3432   7.564   4.670  -0.792 -0.5719  0.4363  0.8077
    9CHTO   O85 3433   7.641   4.553  -0.805 -0.0654  0.2630 -0.5895
    9CHTO  H206 3434   7.727   4.578  -0.833  1.1991 -2.2226  0.8703
    9CHTO  C121 3435   7.453   4.851  -0.632  0.3870  0.2223 -0.5892
    9CHTO  H225 3436   7.445   4.927  -0.713  0.6466  1.1572  0.2528
    9CHTO   O81 3437   7.325   4.792  -0.635  0.2395  0.1882  0.0031
    9CHTO  H202 3438   7.327   4.718  -0.577 -0.9131  1.0963  1.2417
    9CHTO  C119 3439   7.475   4.932  -0.502 -0.1347  0.2340 -0.2232
    9CHTO  H223 3440   7.416   5.023  -0.504 -1.3402 -0.4945  1.2545
    9CHTO  C117 3441   7.623   4.987  -0.471  0.1274 -0.3724 -0.2786
    9CHTO  H221 3442   7.632   5.022  -0.369  0.9509 -1.1235 -0.0775
    9CHTO   N20 3443   7.676   5.100  -0.554  0.3508 -0.3938  0.7727
    9CHTO  H209 3444   7.681   5.182  -0.485 -1.5953 -0.7293  1.3447
    9CHTO  H210 3445   7.603   5.123  -0.631 -1.5960 -2.0225  2.0869
    9CHTO   O80 3446   7.413   4.851  -0.357  0.5131  0.1782 -0.3075
    9CHTO  C103 3447   7.329   4.936  -0.275  0.0680  0.5348 -0.0637
    9CHTO  H190 3448   7.312   4.883  -0.182 -0.7866  0.3680 -0.3069
    9CHTO  C101 3449   7.376   5.082  -0.239 -0.1406 -0.4418  0.3300
    9CHTO  H188 3450   7.416   5.130  -0.328 -2.4872 -0.0229 -0.5331
    9CHTO   O68 3451   7.493   5.061  -0.139  0.0244 -0.1916 -0.1976
    9CHTO  H168 3452   7.554   5.132  -0.148 -0.1248 -0.0438 -0.0348
    9CHTO   C99 3453   7.247   5.165  -0.185 -0.0289 -0.4888  0.0342
    9CHTO  H186 3454   7.216   5.118  -0.090  1.4055  0.3795  0.9694
    9CHTO   N17 3455   7.281   5.305  -0.153  0.0664 -0.3676 -0.2486
    9CHTO  H174 3456   7.294   5.354  -0.249  1.4675  1.5922  0.9042
    9CHTO  H175 3457   7.375   5.318  -0.101 -0.7091 -0.3298  1.1695
    9CHTO   C97 3458   7.127   5.155  -0.283 -0.3420 -0.0983  0.3634
    9CHTO  H184 3459   7.151   5.207  -0.377  4.3068 -2.1420  0.2618
    9CHTO   O64 3460   7.095   5.020  -0.308  0.2919 -0.4714 -0.4754
    9CHTO  C104 3461   7.194   4.931  -0.360  0.1795  0.1464  0.1019
    9CHTO  H191 3462   7.213   4.958  -0.464 -3.2060  1.2905 -0.2847
    9CHTO  C108 3463   7.141   4.787  -0.370  0.2956  0.3242 -0.4169
    9CHTO   O71 3464   7.084   4.733  -0.247 -0.2563 -0.1480  0.4231
    9CHTO  H171 3465   6.991   4.743  -0.249 -0.1237  1.0776 -0.3378
    9CHTO   O62 3466   7.005   5.209  -0.224 -0.4370  0.0097  0.5676
    9CHTO   C91 3467   6.916   5.261  -0.323  0.5332 -0.2979 -0.3543
    9CHTO  H178 3468   6.943   5.247  -0.427 -1.3429 -0.8168 -0.7866
    9CHTO   C92 3469   6.913   5.413  -0.305 -0.3577  0.0479  0.3803
    9CHTO  H179 3470   7.019   5.440  -0.290  0.0626 -0.7632 -1.0719
    9CHTO   O66 3471   6.881   5.467  -0.437  0.3075  0.0531 -0.2993
    9CHTO  H166 3472   6.889   5.560  -0.440 -2.6834  0.3538 -0.2935
    9CHTO   C93 3473   6.817   5.471  -0.198 -0.2528  0.4442  0.4946
    9CHTO  H180 3474   6.808   5.579  -0.215 -0.5981  0.5256  1.1919
    9CHTO   N16 3475   6.873   5.448  -0.062  0.2621  0.2856 -0.1319
    9CHTO  H172 3476   6.899   5.345  -0.045 -1.4280 -0.0275  0.7027
    9CHTO  H173 3477   6.789   5.465   0.004 -0.3911 -1.6068 -0.4576
    9CHTO   C94 3478   6.672   5.406  -0.229 -1.1571  0.2078  0.1062
    9CHTO  H181 3479   6.630   5.355  -0.143 -0.9562  0.4184  0.3298
    9CHTO   O61 3480   6.670   5.309  -0.337  0.5249 -0.1626  0.1684
    9CHTO   C95 3481   6.766   5.204  -0.306 -0.3313 -0.7355 -0.4126
    9CHTO  H182 3482   6.750   5.165  -0.205 -1.0261 -0.5850 -0.4639
    9CHTO  C106 3483   6.748   5.078  -0.384  0.3793  0.2258  0.7030
    9CHTO   O69 3484   6.838   4.972  -0.346 -0.0851 -0.4312 -0.4435
    9CHTO  H169 3485   6.915   4.982  -0.400  1.2012 -1.7787  1.0811
    9CHTO   O63 3486   6.565   5.511  -0.270 -0.1899 -0.1818 -1.1293
    9CHTO   C96 3487   6.471   5.568  -0.140 -0.5400  0.7439 -0.1291
    9CHTO  H183 3488   6.525   5.547  -0.048 -2.3285 -1.2586  0.4988
    9CHTO   C98 3489   6.327   5.513  -0.136 -0.3065 -0.7613  0.2239
    9CHTO  H185 3490   6.274   5.530  -0.231 -2.9211  2.1407  2.0870
    9CHTO   O67 3491   6.350   5.378  -0.118  0.5366  0.2611 -0.2463
    9CHTO  H167 3492   6.359   5.328  -0.197  1.2581 -1.4575  0.8952
    9CHTO  C102 3493   6.242   5.586  -0.023 -0.5222  0.0173  0.2892
    9CHTO  H189 3494   6.275   5.538   0.071 -2.7243 -0.0277  1.0931
    9CHTO   N18 3495   6.096   5.557  -0.033 -0.0531 -0.4311 -0.0665
    9CHTO  H176 3496   6.038   5.598   0.048 -1.5486 -0.9852 -0.8389
    9CHTO  H177 3497   6.079   5.451  -0.041 -4.4059  0.0207  1.8534
    9CHTO  C105 3498   6.275   5.740  -0.009 -0.4011  0.5469  0.7267
    9CHTO  H192 3499   6.219   5.789  -0.089  1.0050 -0.3010 -0.7948
    9CHTO   O65 3500   6.416   5.775  -0.027 -0.2098 -0.6685  0.3034
    9CHTO  C100 3501   6.469   5.722  -0.152  0.0711 -0.7066  0.0307
    9CHTO  H187 3502   6.405   5.754  -0.236  0.9991  1.2207  0.0314
    9CHTO  C107 3503   6.603   5.796  -0.170 -0.2539 -0.4904 -0.0437
    9CHTO   O70 3504   6.708   5.802  -0.074 -0.2021 -0.6245 -0.2782
    9CHTO  H170 3505   6.742   5.889  -0.069  1.5595 -1.2290 -1.2632
    9CHTO   O57 3506   6.223   5.783   0.141  0.6069  0.6520  0.7159
    9CHTO   C85 3507   6.161   5.907   0.173 -0.4468  0.2424 -0.3323
    9CHTO  H157 3508   6.104   5.939   0.083 -0.1589  0.9998 -0.2475
    9CHTO   C83 3509   6.280   6.020   0.183  0.6541  0.2311 -0.7825
    9CHTO  H155 3510   6.328   6.042   0.087 -1.5920  1.3189 -1.6845
    9CHTO   O56 3511   6.385   5.972   0.273  0.2575  0.4528 -0.4133
    9CHTO  H135 3512   6.404   5.884   0.246  0.3921  0.4350 -0.2628
    9CHTO   C81 3513   6.228   6.154   0.244  0.8640  0.3039 -0.8562
    9CHTO  H153 3514   6.157   6.198   0.174 -0.3147 -0.3367 -0.0852
    9CHTO   N14 3515   6.324   6.263   0.251  0.2419 -0.3588  0.5530
    9CHTO  H141 3516   6.278   6.359   0.268 -1.5633 -0.9093 -1.0965
    9CHTO  H142 3517   6.380   6.267   0.160 -0.8957  1.1970 -0.1138
    9CHTO   C79 3518   6.153   6.131   0.380  0.2137 -0.2381  0.1447
    9CHTO  H151 3519   6.105   6.225   0.408 -2.7594 -1.5906 -0.2711
    9CHTO   O52 3520   6.040   6.044   0.364  0.4402 -0.1145 -0.2295
    9CHTO   C86 3521   6.074   5.914   0.309  0.2393  0.7622  0.1206
    9CHTO  H158 3522   6.134   5.865   0.388  0.7899 -2.1764 -2.0203
    9CHTO   C90 3523   5.943   5.828   0.294  0.1790 -0.5726 -0.2656
    9CHTO   O60 3524   5.881   5.808   0.426 -0.5202 -0.1122 -0.3445
    9CHTO  H138 3525   5.788   5.796   0.420 -0.2949 -1.6319 -1.0584
    9CHTO   O50 3526   6.233   6.085   0.489  0.1718 -0.0436 -0.5741
    9CHTO   C73 3527   6.242   6.060   0.635 -0.6393  0.2675  0.0457
    9CHTO  H145 3528   6.154   6.002   0.665 -0.4903  0.1123  0.1857
    9CHTO   C74 3529   6.248   6.197   0.707 -0.5397 -0.0616  0.4883
    9CHTO  H146 3530   6.159   6.253   0.674 -0.3332 -0.0570 -0.0681
    9CHTO   O54 3531   6.234   6.177   0.848  0.2860  0.0676 -0.1525
    9CHTO  H133 3532   6.146   6.175   0.880  0.0691 -0.2783 -0.7635
    9CHTO   C75 3533   6.382   6.275   0.672 -0.1207  0.2393 -0.3528
    9CHTO  H147 3534   6.387   6.274   0.562 -0.9361 -2.5843 -0.4052
    9CHTO   N13 3535   6.402   6.414   0.718  0.8297  0.6291  0.0480
    9CHTO  H139 3536   6.493   6.466   0.690  0.8482 -0.3879 -1.8526
    9CHTO  H140 3537   6.317   6.476   0.697  0.6338  0.2637 -0.2505
    9CHTO   C76 3538   6.502   6.178   0.712 -0.5406 -0.2897  0.8325
    9CHTO  H148 3539   6.501   6.172   0.821  3.3520 -1.4355  0.8836
    9CHTO   O49 3540   6.492   6.044   0.655  0.1495 -0.7795 -0.2519
    9CHTO   C77 3541   6.369   5.972   0.676 -0.1589 -0.1668 -0.3917
    9CHTO  H149 3542   6.362   5.950   0.783 -0.4288  1.0787 -0.1472
    9CHTO   C88 3543   6.369   5.843   0.588  0.1475  0.5147 -0.5295
    9CHTO   O58 3544   6.476   5.763   0.614  0.6819  0.2959  0.0770
    9CHTO  H136 3545   6.557   5.809   0.622  0.4154  0.6311  0.8012
    9CHTO   O51 3546   6.648   6.237   0.658 -0.0024 -0.5777  0.2054
    9CHTO   C78 3547   6.766   6.158   0.735  0.3618  0.1446 -0.2865
    9CHTO  H150 3548   6.726   6.093   0.815  0.7854 -0.2646 -0.4057
    9CHTO   C80 3549   6.855   6.267   0.799  0.6058 -0.4052 -0.5042
    9CHTO  H152 3550   6.898   6.328   0.716 -1.4477 -1.8742 -2.7110
    9CHTO   O55 3551   6.758   6.327   0.890  0.6641 -0.1710 -0.6489
    9CHTO  H134 3552   6.795   6.413   0.899  2.3337 -0.8189 -1.1879
    9CHTO   C84 3553   6.977   6.207   0.882  0.1299 -0.0795 -0.3874
    9CHTO  H156 3554   6.957   6.139   0.965  0.2659  1.0905  0.6167
    9CHTO   N15 3555   7.055   6.313   0.955  0.1272  0.1305 -0.2777
    9CHTO  H143 3556   6.994   6.366   1.025 -0.6419 -0.6521 -0.3456
    9CHTO  H144 3557   7.096   6.376   0.880  0.7834 -1.2966 -1.1455
    9CHTO   C87 3558   7.067   6.132   0.786 -0.7101  0.1745 -0.5661
    9CHTO  H159 3559   7.127   6.193   0.718 -1.3297  0.7545 -0.5926
    9CHTO   O53 3560   6.974   6.025   0.705  0.7347  0.1123  0.0103
    9CHTO   C82 3561   6.854   6.078   0.638 -0.7332 -0.0913  0.1718
    9CHTO  H154 3562   6.880   6.149   0.559 -1.1806 -0.7301 -0.5657
    9CHTO   C89 3563   6.773   5.961   0.573 -0.2994  0.0664 -0.2265
    9CHTO   O59 3564   6.846   5.886   0.477  0.2890 -0.1803  0.2065
    9CHTO  H137 3565   6.838   5.931   0.395 -0.3380 -2.1414 -0.8362
    9CHTO   O45 3566   7.176   6.046   0.874 -0.2350  0.1862  0.3076
    9CHTO   C67 3567   7.229   5.926   0.813  0.0046 -0.5076  0.1248
    9CHTO  H124 3568   7.199   5.925   0.709 -0.5136 -0.7439  0.2760
    9CHTO   C65 3569   7.388   5.923   0.822  0.5700  0.1603  0.7124
    9CHTO  H122 3570   7.417   6.027   0.829  1.1432  0.2421 -2.1675
    9CHTO   O44 3571   7.434   5.869   0.695 -0.0903  0.3864 -0.3491
    9CHTO  H102 3572   7.500   5.917   0.648 -1.6646  2.1707 -0.7966
    9CHTO   C63 3573   7.436   5.849   0.945 -0.5748 -0.1521 -0.4853
    9CHTO  H120 3574   7.381   5.887   1.031  2.8548  0.6828  1.4629
    9CHTO   N11 3575   7.573   5.878   0.995 -0.1443 -0.1666 -0.0694
    9CHTO  H108 3576   7.648   5.865   0.919 -2.6800  0.2525 -2.7332
    9CHTO  H109 3577   7.579   5.816   1.082 -2.1498  2.0666  1.7330
    9CHTO   C61 3578   7.394   5.695   0.929 -0.0079 -0.1871  0.6862
    9CHTO  H118 3579   7.389   5.659   1.033  0.7600 -0.0043  0.7897
    9CHTO   O40 3580   7.253   5.685   0.865 -0.1879 -0.0746 -0.1462
    9CHTO   C68 3581   7.162   5.799   0.886  0.6940  0.0419 -0.5070
    9CHTO  H125 3582   7.142   5.817   0.994  1.9052 -1.2857 -0.0453
    9CHTO   C72 3583   7.028   5.751   0.819 -1.1277  0.1387 -0.1919
    9CHTO   O48 3584   6.958   5.645   0.888 -0.1116 -1.1921 -0.1402
    9CHTO  H105 3585   6.867   5.663   0.880  0.4815  1.9002 -0.5536
    9CHTO   O38 3586   7.474   5.616   0.842  0.2942  0.3005 -0.2835
    9CHTO   C55 3587   7.423   5.477   0.842  0.1420 -0.6035  0.1287
    9CHTO  H112 3588   7.316   5.468   0.864  0.0657  0.6596  0.3054
    9CHTO   C56 3589   7.510   5.383   0.930 -0.5573  0.8412  0.6194
    9CHTO  H113 3590   7.612   5.408   0.899 -0.5464 -0.1964 -0.1951
    9CHTO   O42 3591   7.502   5.413   1.074  0.0590 -0.6819  0.6418
    9CHTO  H100 3592   7.414   5.426   1.105 -0.0235 -1.1017  0.5908
    9CHTO   C57 3593   7.475   5.226   0.908  0.1129  0.1115  1.1407
    9CHTO  H114 3594   7.376   5.201   0.946 -0.1382  0.0461  0.4449
    9CHTO   N10 3595   7.562   5.129   0.974 -0.1361 -0.0288  0.2865
    9CHTO  H106 3596   7.579   5.037   0.920 -3.0046 -0.6118  0.3150
    9CHTO  H107 3597   7.524   5.097   1.069 -1.1203  0.3648  0.0275
    9CHTO   C58 3598   7.466   5.186   0.758 -0.3638 -0.3193 -0.4990
    9CHTO  H115 3599   7.569   5.197   0.718 -0.0087 -0.8996  0.2532
    9CHTO   O37 3600   7.384   5.283   0.693  0.8943 -0.0888 -0.0957
    9CHTO   C59 3601   7.429   5.422   0.697 -0.0020  0.5062 -0.4662
    9CHTO  H116 3602   7.530   5.432   0.657  0.1062 -1.0744 -0.6235
    9CHTO   C70 3603   7.324   5.478   0.602 -0.2598  0.2435  0.5230
    9CHTO   O46 3604   7.344   5.617   0.572 -0.3656 -0.6590  0.3198
    9CHTO  H103 3605   7.269   5.652   0.528  2.1230  3.1179 -1.1279
    9CHTO   O39 3606   7.399   5.016   0.744 -0.1900 -0.1882 -0.4515
    9CHTO   C60 3607   7.444   4.948   0.621 -0.4851 -0.5463  0.1722
    9CHTO  H117 3608   7.470   5.019   0.543  2.1183  1.2317  2.5463
    9CHTO   C62 3609   7.567   4.858   0.641  0.0515  0.3618 -0.3665
    9CHTO  H119 3610   7.650   4.927   0.667  1.9856 -2.5703  1.5492
    9CHTO   O43 3611   7.548   4.766   0.757 -0.3892  0.9454  0.4925
    9CHTO  H101 3612   7.461   4.731   0.756 -0.4299  0.9835  1.6119
    9CHTO   C66 3613   7.601   4.787   0.499 -0.4096 -0.1253 -0.0966
    9CHTO  H123 3614   7.610   4.866   0.424 -1.0775 -0.2796 -0.3426
    9CHTO   N12 3615   7.725   4.705   0.510  0.6416  0.0950 -0.7218
    9CHTO  H110 3616   7.700   4.604   0.480 -0.7303  0.9479 -2.5584
    9CHTO  H111 3617   7.794   4.736   0.433  1.5868 -1.4978 -0.5473
    9CHTO   C69 3618   7.481   4.697   0.460  0.3341  0.0431  0.0857
    9CHTO  H126 3619   7.471   4.631   0.549 -0.1857 -0.5210 -0.3889
    9CHTO   O41 3620   7.352   4.788   0.444 -0.0858  0.6405  0.0944
    9CHTO   C64 3621   7.316   4.879   0.573  0.2066  0.7614  0.8976
    9CHTO  H121 3622   7.263   4.819   0.650  2.9171 -2.8910  0.0819
    9CHTO   C71 3623   7.224   4.986   0.521 -0.1826  0.2583  0.6095
    9CHTO   O47 3624   7.146   5.035   0.632 -0.3763  0.2566  0.6578
    9CHTO  H104 3625   7.081   5.093   0.597  1.7658  0.7991 -2.6239
    9CHTO   O34 3626   7.498   4.601   0.309  0.5801 -0.3777 -0.0496
    9CHTO   C49 3627   7.513   4.467   0.254 -0.5352  0.0870 -0.1540
    9CHTO   H91 3628   7.606   4.464   0.198  0.7145  2.5309  1.7309
    9CHTO   C47 3629   7.401   4.434   0.155  0.3786  0.6190 -0.3117
    9CHTO   H89 3630   7.441   4.343   0.105 -1.6401 -1.2021  1.2587
    9CHTO   O33 3631   7.391   4.533   0.054 -0.0418 -0.3135  0.0273
    9CHTO   H70 3632   7.474   4.557   0.017 -0.3681 -0.2259 -0.6604
    9CHTO   C45 3633   7.259   4.410   0.238 -0.1606  0.3895 -0.3493
    9CHTO   H87 3634   7.203   4.503   0.222 -2.2802 -0.6364  0.7988
    9CHTO    N8 3635   7.188   4.296   0.168  0.5060 -0.3762  0.1228
    9CHTO   H75 3636   7.267   4.222   0.162  1.0757  0.1376  1.1921
    9CHTO   H76 3637   7.160   4.316   0.065  1.1532 -0.3100 -0.0441
    9CHTO   C43 3638   7.288   4.392   0.395  0.1975 -0.2032  0.2896
    9CHTO   H85 3639   7.304   4.491   0.437  3.4552 -0.4379 -0.3044
    9CHTO   O29 3640   7.401   4.308   0.419  0.2839  0.3677  0.2173
    9CHTO   C50 3641   7.525   4.354   0.366 -0.0043 -0.4363 -0.7288
    9CHTO   H92 3642   7.577   4.404   0.448 -1.1401 -0.1249 -0.1822
    9CHTO   C54 3643   7.609   4.235   0.318 -0.2111 -0.1058 -0.3637
    9CHTO   O36 3644   7.671   4.150   0.418  0.1661  0.4103 -0.1976
    9CHTO   H72 3645   7.602   4.098   0.455  1.3222 -1.1170 -0.1017
    9CHTO   O27 3646   7.172   4.339   0.460  0.2714  0.2242  0.2303
    9CHTO   C37 3647   7.127   4.340   0.597  0.5964 -0.4092 -0.0504
    9CHTO   H79 3648   7.030   4.291   0.614  0.9008 -0.8775  0.3514
    9CHTO   C38 3649   7.221   4.248   0.685 -0.2100 -0.5335 -0.0506
    9CHTO   H80 3650   7.327   4.265   0.662 -0.0300  0.6222  1.5147
    9CHTO   O31 3651   7.191   4.111   0.641  0.0449 -0.4304 -0.3304
    9CHTO   H68 3652   7.101   4.089   0.659 -0.4242  2.0201  0.3718
    9CHTO   C39 3653   7.193   4.276   0.843  0.5026 -0.4890 -0.2321
    9CHTO   H81 3654   7.096   4.232   0.868  0.3898 -0.1436 -0.0565
    9CHTO    N7 3655   7.298   4.205   0.928  0.9690 -0.0928 -0.1056
    9CHTO   H73 3656   7.398   4.241   0.909 -0.2648  3.4056 -0.1938
    9CHTO   H74 3657   7.281   4.100   0.907  0.3781  0.2325 -1.2942
    9CHTO   C40 3658   7.177   4.433   0.881 -0.2275  0.3440  0.1156
    9CHTO   H82 3659   7.273   4.478   0.857  0.3142  0.3897  2.3353
    9CHTO   O26 3660   7.074   4.485   0.793  0.6024 -0.3882  0.0171
    9CHTO   C41 3661   7.117   4.486   0.651  0.2201 -0.5607 -0.1804
    9CHTO   H83 3662   7.218   4.529   0.644 -0.5252  1.2774  0.1184
    9CHTO   C52 3663   7.023   4.581   0.571  0.0654  0.3591 -0.0036
    9CHTO   O35 3664   7.082   4.631   0.455 -0.6182  0.2506  0.3483
    9CHTO   H71 3665   7.034   4.705   0.423  0.4641  0.9006  0.1849
    9CHTO   O28 3666   7.139   4.463   1.016  0.2953 -0.2846 -0.6360
    9CHTO   C42 3667   7.066   4.579   1.067  0.2312  0.5711  0.1854
    9CHTO   H84 3668   7.083   4.575   1.174  1.1974 -0.2871 -0.0013
    9CHTO   C44 3669   6.917   4.584   1.040 -0.0019  0.1540  0.1066
    9CHTO   H86 3670   6.901   4.587   0.932 -0.1429  3.4565  0.1663
    9CHTO   O32 3671   6.870   4.457   1.091  0.5983 -0.3493  0.1889
    9CHTO   H69 3672   6.781   4.434   1.075  1.1962 -2.1646 -0.6267
    9CHTO   C48 3673   6.842   4.703   1.119  0.3737 -0.1633 -0.0352
    9CHTO   H90 3674   6.865   4.685   1.224  2.4554 -0.4508 -0.5128
    9CHTO    N9 3675   6.688   4.692   1.111 -0.2743  0.0966 -0.7585
    9CHTO   H77 3676   6.632   4.774   1.153 -1.9583 -0.0126 -2.6735
    9CHTO   H78 3677   6.660   4.659   1.012 -0.3968  2.2272 -1.4609
    9CHTO   C51 3678   6.907   4.836   1.063 -0.0210  0.2668 -0.2613
    9CHTO   H93 3679   6.888   4.835   0.956 -0.1470  0.7672 -0.2455
    9CHTO   O30 3680   7.049   4.841   1.093  0.0391 -0.4983 -0.1912
    9CHTO   C46 3681   7.124   4.712   1.016 -0.3946 -0.3430  0.7318
    9CHTO   H88 3682   7.098   4.725   0.911  2.2905  0.9783  0.2057
    9CHTO   C53 3683   7.274   4.725   1.042  0.1573 -0.3464 -0.5142
    9CHTO   O72 3684   7.321   4.856   1.019  0.4915  0.3478 -0.3846
    9CHTO  H199 3685   7.414   4.857   1.033  0.2190 -1.3280  1.8036
    9CHTO   O22 3686   6.852   4.953   1.132  0.0798 -0.4840 -0.2566
    9CHTO   C31 3687   6.856   5.084   1.068  0.4191  0.3515  0.4976
    9CHTO   H59 3688   6.828   5.152   1.151  1.2893  0.1169  0.9971
    9CHTO   C29 3689   6.988   5.131   1.011 -0.2767 -1.1125 -0.4302
    9CHTO   H57 3690   7.020   5.048   0.946 -0.0722 -0.5586 -1.0536
    9CHTO   O21 3691   7.084   5.141   1.126 -0.1611  0.3710  0.1399
    9CHTO   H37 3692   7.104   5.056   1.159 -2.1721 -0.2401 -0.1616
    9CHTO   C27 3693   6.981   5.267   0.925 -0.3086  0.1276  0.1739
    9CHTO   H55 3694   6.960   5.350   0.993  2.5075  1.0884 -0.0482
    9CHTO    N5 3695   7.111   5.296   0.857  0.3445  0.5805  0.0661
    9CHTO   H43 3696   7.124   5.230   0.773 -1.8515 -0.3184  0.3945
    9CHTO   H44 3697   7.192   5.292   0.928  1.8173 -1.4195 -1.6547
    9CHTO   C25 3698   6.859   5.258   0.832  0.1613 -0.1461  0.2602
    9CHTO   H53 3699   6.873   5.173   0.764  1.5126 -1.4359  2.0935
    9CHTO   O17 3700   6.736   5.225   0.906  0.2278 -0.2030 -0.7750
    9CHTO   C32 3701   6.735   5.096   0.964  0.1603  0.2228  0.1782
    9CHTO   H60 3702   6.744   5.028   0.880  0.1672  1.0196 -0.4740
    9CHTO   C36 3703   6.596   5.065   1.013  0.2725 -0.5221 -0.1817
    9CHTO   O25 3704   6.568   5.123   1.142  0.1022  0.2753 -0.2515
    9CHTO   H40 3705   6.634   5.092   1.201 -0.5073 -0.2699  0.1497
    9CHTO   O15 3706   6.827   5.387   0.758 -0.3452 -0.3805  0.2379
    9CHTO   C19 3707   6.802   5.383   0.616 -0.1267  0.0300  0.1118
    9CHTO   H47 3708   6.729   5.465   0.605  0.8682  0.7070 -1.5694
    9CHTO   C20 3709   6.932   5.415   0.524  0.1621  0.7305  0.0196
    9CHTO   H48 3710   7.019   5.354   0.552  0.3733  1.1692  0.3159
    9CHTO   O19 3711   6.977   5.543   0.559  0.0350  0.2362  0.4319
    9CHTO   H35 3712   7.002   5.532   0.648 -0.7452  1.8516  0.8680
    9CHTO   C21 3713   6.910   5.396   0.365 -0.0116  0.6087  0.3359
    9CHTO   H49 3714   6.846   5.478   0.332 -1.7491 -0.3657  1.1779
    9CHTO    N4 3715   7.040   5.428   0.289 -0.0756 -0.4629 -0.0513
    9CHTO   H41 3716   7.039   5.536   0.286  0.0712 -0.4552  0.1736
    9CHTO   H42 3717   7.121   5.399   0.354 -1.1336  0.0765  1.5498
    9CHTO   C22 3718   6.843   5.254   0.345 -0.0885 -0.4920  0.4263
    9CHTO   H50 3719   6.922   5.183   0.368  0.3532 -0.4008 -0.8125
    9CHTO   O14 3720   6.721   5.251   0.414  1.1355  0.0485  0.4762
    9CHTO   C23 3721   6.729   5.256   0.556 -0.0875 -0.3371 -0.0948
    9CHTO   H51 3722   6.780   5.162   0.582  1.2205  0.8539  1.7760
    9CHTO   C34 3723   6.594   5.246   0.623  0.0303 -0.0855  0.0262
    9CHTO   O23 3724   6.498   5.345   0.575  0.1273  0.1290 -0.2634
    9CHTO   H38 3725   6.494   5.412   0.641  1.9420  0.3108 -0.3017
    9CHTO   O16 3726   6.800   5.237   0.209  0.1644 -0.0658 -0.4332
    9CHTO   C24 3727   6.720   5.109   0.178 -0.2346  0.6683  0.2089
    9CHTO   H52 3728   6.690   5.055   0.268  0.4460 -0.0053  0.0381
    9CHTO   C26 3729   6.818   5.014   0.100 -0.1455 -0.0548  0.9123
    9CHTO   H54 3730   6.858   5.065   0.010 -0.0475 -1.9289 -0.1378
    9CHTO   O20 3731   6.921   4.973   0.191 -0.0929  0.3626  0.7559
    9CHTO   H36 3732   6.999   5.019   0.167 -1.2901  1.6527 -0.7911
    9CHTO   C30 3733   6.732   4.894   0.047 -0.8231 -0.7582 -1.0599
    9CHTO   H58 3734   6.712   4.820   0.126  1.5138 -2.0142 -1.5965
    9CHTO    N6 3735   6.818   4.815  -0.047  0.1672  0.2567 -0.1483
    9CHTO   H45 3736   6.760   4.787  -0.133  0.1926 -1.1133  0.2660
    9CHTO   H46 3737   6.862   4.727  -0.003 -2.5288 -0.1175  1.9188
    9CHTO   C33 3738   6.595   4.933  -0.019  0.0914 -0.0284 -0.1789
    9CHTO   H61 3739   6.612   4.986  -0.113 -0.1957 -0.4018 -0.4402
    9CHTO   O18 3740   6.523   5.015   0.069 -0.2901  0.0907  0.2670
    9CHTO   C28 3741   6.586   5.142   0.094 -0.4752 -0.1951  0.1454
    9CHTO   H56 3742   6.613   5.192   0.001 -0.7971  0.1055  0.2137
    9CHTO   C35 3743   6.490   5.226   0.174  0.5011  0.1130 -0.2699
    9CHTO   O24 3744   6.542   5.363   0.179  0.0586  0.3446  0.1117
    9CHTO   H39 3745   6.488   5.425   0.223 -0.4775  0.4559 -0.6863
    9CHTO    O9 3746   6.520   4.814  -0.053 -0.6078 -0.1134  0.5872
    9CHTO   C13 3747   6.414   4.817  -0.187  0.2641  0.4966  0.5254
    9CHTO   H26 3748   6.481   4.783  -0.269 -1.0458  0.4725 -0.5501
    9CHTO   C11 3749   6.353   4.964  -0.218 -0.0364  0.2419  0.1658
    9CHTO   H24 3750   6.436   5.025  -0.256  0.3803 -0.0584  0.5863
    9CHTO    O8 3751   6.295   5.030  -0.105 -0.5278  0.0194  0.2153
    9CHTO    H3 3752   6.347   5.009  -0.029  0.7842  1.2871 -0.3026
    9CHTO    C9 3753   6.247   4.932  -0.328  0.3700 -0.2453  0.2173
    9CHTO   H22 3754   6.302   4.872  -0.402  2.2577  1.0603  0.5216
    9CHTO    N2 3755   6.213   5.053  -0.408  0.5433 -0.6012  0.2062
    9CHTO   H10 3756   6.112   5.085  -0.425 -0.0338 -2.0953  0.7668
    9CHTO   H11 3757   6.274   5.053  -0.497 -0.0701 -1.2172 -0.2178
    9CHTO    C7 3758   6.130   4.860  -0.267  0.3708 -0.7613 -0.1902
    9CHTO   H20 3759   6.096   4.793  -0.348  0.4787 -1.8375  0.6492
    9CHTO    O4 3760   6.172   4.783  -0.152 -0.6346  0.4079  0.2172
    9CHTO   C14 3761   6.301   4.707  -0.159  0.3533  0.3355  0.2251
    9CHTO   H27 3762   6.304   4.644  -0.250 -0.1183  1.8109 -0.8309
    9CHTO   C18 3763   6.322   4.610  -0.030  0.0479  0.7999 -0.0616
    9CHTO   O13 3764   6.225   4.502  -0.035  0.7083 -0.1835 -0.4816
    9CHTO    H7 3765   6.224   4.470  -0.123  0.4726 -0.2326 -0.4622
    9CHTO    O2 3766   6.017   4.966  -0.205 -0.9042  0.0239 -0.3041
    9CHTO    C1 3767   5.894   4.912  -0.151  0.8039  0.1637  0.3731
    9CHTO   H14 3768   5.915   4.813  -0.105  0.4414 -0.8292 -1.5315
    9CHTO    C2 3769   5.779   4.891  -0.254 -0.1635 -0.2843 -0.1776
    9CHTO   H15 3770   5.771   4.991  -0.298 -0.8157  1.1152  2.9980
    9CHTO    O6 3771   5.822   4.791  -0.342  0.1572 -0.0198 -0.0158
    9CHTO    H1 3772   5.748   4.767  -0.395  1.0321 -1.9322 -0.4134
    9CHTO    C3 3773   5.629   4.855  -0.193 -0.2131  0.1487 -0.0246
    9CHTO   H16 3774   5.630   4.749  -0.165  0.6339 -0.0980 -0.9655
    9CHTO    N1 3775   5.515   4.875  -0.291  0.4420  0.0871 -0.4771
    9CHTO    H8 3776   5.426   4.879  -0.230  0.0469 -1.5443 -0.9213
    9CHTO    H9 3777   5.519   4.801  -0.370  0.4056 -1.0066  0.5214
    9CHTO    C4 3778   5.609   4.939  -0.063  0.0035  0.3183  0.0928
    9CHTO   H17 3779   5.582   5.042  -0.086  2.0818  1.0430  0.7865
    9CHTO    O1 3780   5.723   4.947   0.022  0.2504 -0.4364 -0.2194
    9CHTO    C5 3781   5.842   5.007  -0.039 -0.1204 -0.0956 -0.1192
    9CHTO   H18 3782   5.822   5.099  -0.093  0.2485  1.5917  2.5272
    9CHTO   C16 3783   5.948   5.024   0.062 -0.3764 -0.2629 -0.3501
    9CHTO   O11 3784   6.038   5.129   0.033 -0.8375  0.0390 -0.0117
    9CHTO    H5 3785   6.100   5.143   0.102 -0.7241 -0.2272 -0.0607
    9CHTO    O3 3786   5.509   4.874   0.016 -0.0079  0.2747  0.0312
    9CHTO    C6 3787   5.389   4.962   0.047  0.4669  0.7253  0.2883
    9CHTO   H19 3788   5.386   5.054  -0.013 -0.4780  0.2833 -0.3554
    9CHTO    C8 3789   5.253   4.885   0.026 -0.3874  0.0846  0.0166
    9CHTO   H21 3790   5.265   4.788   0.074 -0.8684  0.1020  0.1708
    9CHTO    O7 3791   5.245   4.876  -0.113  0.5629  0.2725 -0.8917
    9CHTO    H2 3792   5.254   4.788  -0.143 -1.7245 -0.0605 -0.6559
    9CHTO   C12 3793   5.130   4.960   0.097  0.2331  0.7423 -0.6588
    9CHTO   H25 3794   5.117   5.062   0.055 -2.5479  0.3909 -0.7432
    9CHTO    N3 3795   5.005   4.874   0.078 -0.0337 -0.1091  0.0162
    9CHTO   H12 3796   5.011   4.771   0.111 -4.3636  0.0487  1.7501
    9CHTO   H13 3797   4.918   4.920   0.122 -0.7360 -1.0676 -0.3454
    9CHTO   C15 3798   5.170   4.974   0.243  0.8027 -0.7384  0.0847
    9CHTO   H28 3799   5.195   4.878   0.290 -0.0362 -0.4491  1.1628
    9CHTO   O10 3800   5.048   5.045   0.328  0.3808 -0.4085 -0.3221
    9CHTO    H4 3801   5.012   5.123   0.290  0.4547  0.1585  0.7374
    9CHTO    O5 3802   5.286   5.059   0.255 -0.4202 -0.1231 -0.5751
    9CHTO   C10 3803   5.407   5.007   0.196  0.1648  0.0595  1.5895
    9CHTO   H23 3804   5.446   4.923   0.253  1.2190 -0.4115  0.2070
    9CHTO   C17 3805   5.514   5.117   0.206  0.0857  0.4287 -0.1348
    9CHTO   O12 3806   5.585   5.097   0.329  0.2003  0.1092 -0.3282
    9CHTO    H6 3807   5.548   5.148   0.399 -0.7452 -1.0057  0.0081
   10CHTO  H203 3808   3.750   7.846   2.108 -1.6626 -0.3338  1.1948
   10CHTO   O82 3809   3.785   7.897   2.178  0.0921  0.5108 -0.2531
   10CHTO  C123 3810   3.668   7.925   2.268  0.8606  0.3850 -0.4517
   10CHTO  H227 3811   3.699   7.979   2.358  3.4248 -1.7228 -0.0124
   10CHTO   O77 3812   3.586   8.013   2.186 -0.4527  0.1397 -0.2806
   10CHTO  C118 3813   3.467   8.064   2.244 -0.7561  0.2329 -0.1600
   10CHTO  H222 3814   3.492   8.126   2.332  0.6859  2.1299 -1.8282
   10CHTO  C125 3815   3.396   8.149   2.137 -1.5467 -0.0483 -0.0741
   10CHTO   O84 3816   3.473   8.271   2.132 -0.5337  0.5657 -0.2504
   10CHTO  H205 3817   3.436   8.333   2.073 -0.0893  1.6858  0.6417
   10CHTO  C114 3818   3.377   7.947   2.287 -0.3126 -0.0487  0.2372
   10CHTO  H218 3819   3.358   7.889   2.197 -3.0993  2.9918 -1.2340
   10CHTO  C116 3820   3.457   7.848   2.378  0.2636  0.5202 -0.1469
   10CHTO  H220 3821   3.498   7.900   2.467 -0.7529  0.9568  0.0713
   10CHTO   O79 3822   3.371   7.739   2.412  0.5370 -0.6406 -0.7221
   10CHTO  H201 3823   3.411   7.655   2.413  2.2190  0.1434  0.2758
   10CHTO  C120 3824   3.592   7.802   2.309  1.1004  0.5286 -0.3454
   10CHTO  H224 3825   3.556   7.743   2.222 -0.0267 -0.3877  0.7214
   10CHTO   N21 3826   3.676   7.714   2.389  0.7660 -0.2652 -0.4587
   10CHTO  H211 3827   3.661   7.724   2.496 -1.0097  2.8466 -0.9274
   10CHTO  H212 3828   3.782   7.723   2.375  0.3901  0.5594 -2.9101
   10CHTO   O75 3829   3.258   7.989   2.346 -0.3938  0.0985  0.3975
   10CHTO  C112 3830   3.271   8.068   2.494 -0.3498  1.0792 -0.1193
   10CHTO  H216 3831   3.353   8.141   2.486 -0.9232  1.5966 -1.4161
   10CHTO   O73 3832   3.292   7.971   2.604  0.0237 -0.3127 -0.2562
   10CHTO  C113 3833   3.298   8.036   2.733 -0.5080  0.3324  0.0944
   10CHTO  H217 3834   3.395   8.089   2.731 -0.3571  0.0333 -1.7227
   10CHTO  C124 3835   3.312   7.933   2.840 -0.4773  0.1708 -0.5043
   10CHTO   O83 3836   3.425   7.851   2.820 -0.4930  0.0069 -0.9188
   10CHTO  H204 3837   3.405   7.780   2.761  0.5308 -0.7911 -0.3300
   10CHTO  C109 3838   3.180   8.120   2.766 -0.3239 -0.4087 -0.2432
   10CHTO  H213 3839   3.094   8.057   2.792  0.3516 -0.1887  2.7052
   10CHTO  C110 3840   3.135   8.217   2.650  0.2970  1.2778  0.8329
   10CHTO  H214 3841   3.197   8.306   2.654  2.0744  0.0894  0.4347
   10CHTO   O78 3842   3.005   8.266   2.677 -0.0993  0.2014  0.0512
   10CHTO  H200 3843   2.942   8.198   2.688 -1.5607  1.5528  0.3219
   10CHTO  C111 3844   3.138   8.145   2.515 -0.4703  0.1915  0.4040
   10CHTO  H215 3845   3.057   8.071   2.512 -0.6891  0.4081  0.8330
   10CHTO   N19 3846   3.115   8.236   2.402 -0.0604 -0.4128  0.3715
   10CHTO  H207 3847   3.034   8.213   2.334  0.0508 -1.0435  0.4472
   10CHTO  H208 3848   3.208   8.243   2.348 -0.3510 -1.9302 -0.3580
   10CHTO   O74 3849   3.209   8.203   2.885  0.1737  0.3116  0.3430
   10CHTO  C115 3850   3.082   8.252   2.957  0.6389  0.4783 -0.5448
   10CHTO  H219 3851   3.036   8.338   2.909 -0.2300  0.4849  0.2816
   10CHTO   O76 3852   2.946   8.123   2.953 -0.6383 -0.1530 -0.0295
   10CHTO  C122 3853   2.975   8.010   3.035  0.5097 -0.5374 -0.0244
   10CHTO  H226 3854   3.062   7.964   2.989  0.1387 -0.0321 -1.2408
   10CHTO  C126 3855   2.852   7.913   3.013  0.0303 -0.6079 -0.6946
   10CHTO   O85 3856   2.854   7.790   3.092 -0.5003  0.0776  0.3515
   10CHTO  H206 3857   2.768   7.751   3.098 -0.2719 -0.7015 -1.1494
   10CHTO  C121 3858   3.004   8.045   3.190 -0.2213 -0.9482  0.1631
   10CHTO  H225 3859   2.910   8.015   3.241 -1.8182  0.6607 -1.7638
   10CHTO   O81 3860   3.121   7.979   3.241  0.3936 -0.1615 -0.0490
   10CHTO  H202 3861   3.094   7.961   3.329  0.2531  0.4322  0.0339
   10CHTO  C119 3862   3.022   8.202   3.217  0.1271 -0.0792 -0.2760
   10CHTO  H223 3863   2.921   8.242   3.206 -0.8336 -2.2584  0.2343
   10CHTO  C117 3864   3.120   8.276   3.111 -0.0008 -0.0209  0.0095
   10CHTO  H221 3865   3.226   8.249   3.114 -0.3729 -1.4601  0.4228
   10CHTO   N20 3866   3.116   8.424   3.145 -0.0787 -0.0316 -0.0500
   10CHTO  H209 3867   3.219   8.456   3.135 -0.3683  0.8977 -0.0581
   10CHTO  H210 3868   3.029   8.478   3.111 -0.7210 -0.0710  1.4836
   10CHTO   O80 3869   3.053   8.225   3.387  0.0605  0.1804 -0.4114
   10CHTO  C103 3870   2.934   8.316   3.474  0.0215 -1.4860 -0.6542
   10CHTO  H190 3871   2.875   8.378   3.406  1.3062 -0.0174 -0.4536
   10CHTO  C101 3872   2.826   8.241   3.553 -0.0471 -0.4027 -0.0601
   10CHTO  H188 3873   2.857   8.179   3.637  0.8696 -0.1793 -0.2312
   10CHTO   O68 3874   2.747   8.142   3.453  0.3469 -0.2985 -0.2520
   10CHTO  H168 3875   2.708   8.187   3.380 -0.2005 -1.5858 -0.7585
   10CHTO   C99 3876   2.735   8.362   3.612  0.3090 -0.2971  0.7847
   10CHTO  H186 3877   2.713   8.429   3.526 -0.7246 -1.2072  0.3358
   10CHTO   N17 3878   2.607   8.324   3.667  0.1840  0.3354 -0.0909
   10CHTO  H174 3879   2.534   8.273   3.606  3.7144 -4.3071 -0.7370
   10CHTO  H175 3880   2.640   8.257   3.745  1.0448 -1.8062 -2.2249
   10CHTO   C97 3881   2.816   8.441   3.711 -0.9117  0.0304  0.4367
   10CHTO  H184 3882   2.857   8.376   3.789  3.0952  2.0360  0.1805
   10CHTO   O64 3883   2.919   8.501   3.635 -0.0996 -0.0238  0.5985
   10CHTO  C104 3884   3.011   8.414   3.568  0.4680 -0.1493  0.1225
   10CHTO  H191 3885   3.063   8.354   3.643 -1.1644 -0.1504  1.2636
   10CHTO  C108 3886   3.120   8.497   3.499 -0.6077 -0.9235 -0.0563
   10CHTO   O71 3887   3.217   8.540   3.600 -0.5561  0.2757 -0.0119
   10CHTO  H171 3888   3.180   8.568   3.682  0.4670 -0.3429  0.6711
   10CHTO   O62 3889   2.770   8.559   3.773 -0.1561  0.0753  0.2468
   10CHTO   C91 3890   2.718   8.550   3.908  0.1108 -0.3352 -0.1423
   10CHTO  H178 3891   2.684   8.447   3.921 -1.5564  0.1169 -0.8191
   10CHTO   C92 3892   2.580   8.632   3.922  0.0515  0.7203  0.0578
   10CHTO  H179 3893   2.593   8.738   3.893 -1.5381  1.2515  1.1899
   10CHTO   O66 3894   2.485   8.576   3.832  0.0115 -0.2264 -0.3062
   10CHTO  H166 3895   2.396   8.577   3.861 -0.4352 -0.0939 -1.6523
   10CHTO   C93 3896   2.518   8.635   4.067 -0.2847  1.5931 -0.2964
   10CHTO  H180 3897   2.495   8.530   4.089  0.5639  1.5949  0.6529
   10CHTO   N16 3898   2.391   8.707   4.072 -0.1613 -0.0880  0.7460
   10CHTO  H172 3899   2.312   8.652   4.123 -0.8106 -1.1458 -1.3222
   10CHTO  H173 3900   2.404   8.798   4.128 -0.0440 -1.2614  2.6685
   10CHTO   C94 3901   2.627   8.684   4.172  0.3863  0.1590 -0.8023
   10CHTO  H181 3902   2.657   8.788   4.159  3.0017 -0.4630 -0.0283
   10CHTO   O61 3903   2.752   8.611   4.155  0.6331  0.1768  0.3252
   10CHTO   C95 3904   2.812   8.610   4.027 -0.2833  0.0016  0.2799
   10CHTO  H182 3905   2.842   8.712   4.003  1.4454 -0.4120  0.5902
   10CHTO  C106 3906   2.947   8.527   4.037  0.0287 -0.5059 -0.0131
   10CHTO   O69 3907   3.036   8.566   3.935 -0.7049 -0.0627 -0.4845
   10CHTO  H169 3908   2.989   8.573   3.854  0.7856  0.9823 -1.2740
   10CHTO   O63 3909   2.566   8.681   4.315  0.3226 -0.1920 -0.6516
   10CHTO   C96 3910   2.571   8.548   4.398  0.4087  0.3412 -0.6998
   10CHTO  H183 3911   2.663   8.493   4.380  0.4687 -0.2436  1.2559
   10CHTO   C98 3912   2.462   8.438   4.372 -0.2380 -0.6348  0.7457
   10CHTO  H185 3913   2.368   8.492   4.352 -1.1504 -2.5178 -0.1890
   10CHTO   O67 3914   2.501   8.369   4.249  0.5457  0.4615 -0.0421
   10CHTO  H167 3915   2.589   8.335   4.247 -0.5427 -2.4852 -0.0214
   10CHTO  C102 3916   2.436   8.332   4.496 -0.9133  0.0242 -0.2122
   10CHTO  H189 3917   2.517   8.258   4.489  0.8018  1.6114  2.0281
   10CHTO   N18 3918   2.311   8.257   4.491 -0.1762 -0.2370  0.3206
   10CHTO  H176 3919   2.243   8.301   4.419  2.1029  3.5070  0.3674
   10CHTO  H177 3920   2.331   8.151   4.480 -0.0323 -0.3041  1.1926
   10CHTO  C105 3921   2.456   8.411   4.629  0.1225  0.6986  0.1726
   10CHTO  H192 3922   2.376   8.485   4.639 -2.2226 -1.3132 -2.8011
   10CHTO   O65 3923   2.581   8.476   4.628 -0.0324  0.1806  0.7166
   10CHTO  C100 3924   2.581   8.595   4.549  0.1974 -0.1840  0.6471
   10CHTO  H187 3925   2.497   8.662   4.575  0.0097  0.2123 -0.9814
   10CHTO  C107 3926   2.715   8.675   4.584 -0.1012 -0.2410 -0.9118
   10CHTO   O70 3927   2.693   8.743   4.711  0.0006 -0.6214  0.5895
   10CHTO  H170 3928   2.740   8.824   4.705 -0.0330 -0.6714 -0.5623
   10CHTO   O57 3929   2.469   8.305   4.757 -0.5428 -0.2177 -0.6252
   10CHTO   C85 3930   2.377   8.322   4.870 -0.0157  0.4945  0.2256
   10CHTO  H157 3931   2.275   8.333   4.827  0.7462 -1.6807 -2.2849
   10CHTO   C83 3932   2.407   8.458   4.943  0.1111  0.0427 -0.2097
   10CHTO  H155 3933   2.398   8.542   4.874 -0.0453  1.1504  1.1268
   10CHTO   O56 3934   2.548   8.457   4.976 -0.3213 -0.7201 -0.8828
   10CHTO  H135 3935   2.564   8.377   5.022  2.0854 -0.5095 -1.2615
   10CHTO   C81 3936   2.310   8.476   5.062 -0.2220  0.3603  0.8117
   10CHTO  H153 3937   2.212   8.454   5.018  0.5564 -3.2804  0.7268
   10CHTO   N14 3938   2.295   8.611   5.123  0.1460  0.2801 -0.6061
   10CHTO  H141 3939   2.259   8.615   5.224  1.1952 -0.5027 -0.1937
   10CHTO  H142 3940   2.247   8.689   5.067 -2.2621 -0.6994  0.0598
   10CHTO   C79 3941   2.333   8.374   5.173  0.2292 -0.0261  0.1735
   10CHTO  H151 3942   2.245   8.379   5.237  0.3446  0.3334  0.3013
   10CHTO   O52 3943   2.323   8.241   5.110 -0.1602  0.1745  0.4956
   10CHTO   C86 3944   2.389   8.209   4.984  0.2832  1.3823 -0.0798
   10CHTO  H158 3945   2.494   8.191   5.014  0.8126 -1.2873 -3.2531
   10CHTO   C90 3946   2.337   8.072   4.938 -0.1793 -0.2460  0.5854
   10CHTO   O60 3947   2.425   8.014   4.848 -0.0989 -0.4283  0.6751
   10CHTO  H138 3948   2.388   8.016   4.762  0.9310 -1.4180  0.2008
   10CHTO   O50 3949   2.455   8.377   5.248 -0.4446 -0.2315  0.1424
   10CHTO   C73 3950   2.504   8.359   5.383  0.2732 -0.2309  0.4239
   10CHTO  H145 3951   2.434   8.289   5.431 -1.9882  1.7758  0.1576
   10CHTO   C74 3952   2.486   8.491   5.466  0.6055  0.3177 -0.7034
   10CHTO  H146 3953   2.379   8.512   5.457  0.8823  1.9554 -0.3307
   10CHTO   O54 3954   2.514   8.461   5.601 -0.5502  0.1342 -0.2044
   10CHTO  H133 3955   2.467   8.521   5.656 -0.7612  0.0679 -0.3111
   10CHTO   C75 3956   2.571   8.604   5.401 -0.0348  1.1042 -0.1777
   10CHTO  H147 3957   2.554   8.605   5.292  1.5180 -0.6228 -0.4716
   10CHTO   N13 3958   2.539   8.735   5.457  0.0168  0.0774 -0.2332
   10CHTO  H139 3959   2.536   8.736   5.565  0.0868  0.4365 -0.2363
   10CHTO  H140 3960   2.610   8.805   5.417 -0.0202 -0.8800 -2.0380
   10CHTO   C76 3961   2.721   8.558   5.413  0.4151 -0.2131 -0.2151
   10CHTO  H148 3962   2.741   8.549   5.519  0.2305 -2.1992 -0.3299
   10CHTO   O49 3963   2.739   8.424   5.353 -0.2864  0.0253 -0.0710
   10CHTO   C77 3964   2.654   8.313   5.397  0.5415  0.2772 -0.8733
   10CHTO  H149 3965   2.675   8.280   5.498  1.2227  2.7938 -0.1754
   10CHTO   C88 3966   2.676   8.182   5.313  0.6364  0.4043 -0.2604
   10CHTO   O58 3967   2.583   8.075   5.350  0.6258 -0.3165 -0.1827
   10CHTO  H136 3968   2.633   7.998   5.371  0.3804 -0.8649 -1.5590
   10CHTO   O51 3969   2.815   8.661   5.346  1.2725  0.1963 -0.3560
   10CHTO   C78 3970   2.972   8.607   5.356  0.9893 -0.4549  0.4416
   10CHTO  H150 3971   2.985   8.497   5.354  1.0507 -0.4818  1.6585
   10CHTO   C80 3972   3.040   8.661   5.485 -0.4474  0.1907 -0.2207
   10CHTO  H152 3973   3.021   8.770   5.487 -1.8990 -0.0662  0.6294
   10CHTO   O55 3974   2.963   8.603   5.590 -0.7486 -0.1684  0.1254
   10CHTO  H134 3975   3.008   8.524   5.616  0.0719 -0.0511 -0.9259
   10CHTO   C84 3976   3.196   8.628   5.483 -0.1779  0.0568 -0.4092
   10CHTO  H156 3977   3.205   8.520   5.494 -2.6172 -0.1397 -0.0845
   10CHTO   N15 3978   3.266   8.688   5.599  0.3210 -0.5119  0.1559
   10CHTO  H143 3979   3.257   8.794   5.592  0.8921 -0.4910 -0.2856
   10CHTO  H144 3980   3.223   8.657   5.692 -1.7975  0.2045 -0.5735
   10CHTO   C87 3981   3.254   8.662   5.340 -0.0411 -0.4801  0.3566
   10CHTO  H159 3982   3.272   8.769   5.330 -0.9899 -0.2883  0.6209
   10CHTO   O53 3983   3.171   8.607   5.222 -0.1537 -0.1016 -0.4770
   10CHTO   C82 3984   3.038   8.663   5.226 -0.6671 -0.8050  0.1489
   10CHTO  H154 3985   3.049   8.771   5.227 -0.2562 -0.8373 -0.5555
   10CHTO   C89 3986   2.971   8.624   5.096 -0.4209 -0.2914 -0.1800
   10CHTO   O59 3987   2.855   8.705   5.057  0.4440  0.1939 -0.2057
   10CHTO  H137 3988   2.770   8.672   5.080  1.1460 -2.5488 -1.4126
   10CHTO   O45 3989   3.407   8.594   5.337  0.0604  0.1684 -0.4712
   10CHTO   C67 3990   3.495   8.672   5.254 -0.2819  0.2309 -0.7093
   10CHTO  H124 3991   3.442   8.702   5.164  0.0770 -1.4861 -1.5060
   10CHTO   C65 3992   3.548   8.793   5.327 -0.2847 -0.4928 -0.1436
   10CHTO  H122 3993   3.479   8.813   5.410  1.6986 -0.5072  1.5521
   10CHTO   O44 3994   3.539   8.899   5.237  0.3721  0.5285 -0.3190
   10CHTO  H102 3995   3.548   8.983   5.279 -0.3633 -0.2386  1.4473
   10CHTO   C63 3996   3.683   8.764   5.395  0.3288 -0.0044 -0.4453
   10CHTO  H120 3997   3.675   8.677   5.461  1.7571  1.1076  1.2545
   10CHTO   N11 3998   3.728   8.870   5.498  0.0693 -0.3430  0.0040
   10CHTO  H108 3999   3.727   8.965   5.450  1.3831  0.9867  2.5416
   10CHTO  H109 4000   3.666   8.882   5.584  1.0206  0.1083  0.6294
   10CHTO   C61 4001   3.792   8.724   5.282 -0.1329  0.9213 -0.4182
   10CHTO  H118 4002   3.874   8.668   5.330  0.1496  1.0725 -0.7223
   10CHTO   O40 4003   3.734   8.630   5.181  0.1045  0.4467 -0.0047
   10CHTO   C68 4004   3.608   8.564   5.213 -0.5356  0.1119  0.6846
   10CHTO  H125 4005   3.627   8.498   5.300 -0.5119  0.5222  0.9918
   10CHTO   C72 4006   3.550   8.478   5.100  0.0336 -0.3801 -0.2945
   10CHTO   O48 4007   3.641   8.421   4.998 -0.4257  0.3040  0.1797
   10CHTO  H105 4008   3.702   8.488   4.972 -2.2001  1.5113 -0.9657
   10CHTO   O38 4009   3.834   8.835   5.208  0.5146  0.4293 -0.1167
   10CHTO   C55 4010   3.968   8.846   5.168 -0.2458  0.6106 -0.4129
   10CHTO  H112 4011   4.014   8.748   5.147 -0.4780  0.1499  1.2331
   10CHTO   C56 4012   4.056   8.932   5.272 -0.4285  0.7479 -0.3153
   10CHTO  H113 4013   4.003   9.027   5.290  0.7296  1.0498  1.5893
   10CHTO   O42 4014   4.066   8.869   5.403 -0.1799  0.5495 -0.0022
   10CHTO  H100 4015   3.981   8.849   5.437  0.8924  1.1238  3.2356
   10CHTO   C57 4016   4.199   8.977   5.207  0.1931  0.5470 -0.6472
   10CHTO  H114 4017   4.260   8.889   5.190 -1.3926 -0.6568 -0.1656
   10CHTO   N10 4018   4.262   9.075   5.300 -0.1813  0.3838  0.1327
   10CHTO  H106 4019   4.369   9.072   5.283 -0.2948 -1.2659 -0.3251
   10CHTO  H107 4020   4.237   9.179   5.280 -0.0416  0.8987  2.5642
   10CHTO   C58 4021   4.170   9.035   5.071 -0.0287 -0.3979 -0.0463
   10CHTO  H115 4022   4.105   9.125   5.082 -1.0727 -1.2549  1.0022
   10CHTO   O37 4023   4.093   8.946   4.987  0.2679  0.1051  0.5099
   10CHTO   C59 4024   3.965   8.914   5.034  0.0843 -0.6512  0.0184
   10CHTO  H116 4025   3.899   9.001   5.046 -2.1776 -2.3711  0.3946
   10CHTO   C70 4026   3.885   8.827   4.932  0.1630 -0.6616 -0.2792
   10CHTO   O46 4027   3.832   8.881   4.814  0.5141 -0.1070  0.1862
   10CHTO  H103 4028   3.906   8.902   4.761  0.2627 -1.0412 -0.5476
   10CHTO   O39 4029   4.292   9.077   4.984  0.7484  0.4426 -0.0783
   10CHTO   C60 4030   4.308   9.221   4.972 -0.1253 -0.4075  0.2056
   10CHTO  H117 4031   4.240   9.279   5.035 -3.2332 -1.3158 -2.1438
   10CHTO   C62 4032   4.457   9.249   5.013 -0.0339  0.8233  0.2935
   10CHTO  H119 4033   4.458   9.201   5.113 -1.2172 -1.1127 -0.6021
   10CHTO   O43 4034   4.550   9.194   4.918  0.0056 -0.5109 -0.4123
   10CHTO  H101 4035   4.565   9.102   4.926  0.3060 -0.5285 -1.0771
   10CHTO   C66 4036   4.467   9.404   5.023 -0.1904  0.4123  0.8728
   10CHTO  H123 4037   4.396   9.432   5.101  0.4919  1.5216  1.1040
   10CHTO   N12 4038   4.596   9.449   5.083  0.0901 -0.0125 -0.5293
   10CHTO  H110 4039   4.662   9.364   5.086 -2.1757 -1.8001 -1.0250
   10CHTO  H111 4040   4.571   9.469   5.186 -0.1000 -0.7392 -0.4369
   10CHTO   C69 4041   4.437   9.469   4.885  0.3026 -0.6914  0.5225
   10CHTO  H126 4042   4.525   9.443   4.822  2.0795  1.8860  1.8354
   10CHTO   O41 4043   4.302   9.422   4.818 -0.4317  0.7066  0.0929
   10CHTO   C64 4044   4.293   9.272   4.823 -0.3644  0.3802 -0.3120
   10CHTO  H121 4045   4.369   9.227   4.757 -1.4839 -2.8698  0.5118
   10CHTO   C71 4046   4.155   9.236   4.775  0.3969  0.3246 -0.2690
   10CHTO   O47 4047   4.048   9.308   4.842 -0.0016  0.1365  0.7047
   10CHTO  H104 4048   4.074   9.326   4.930  1.7324 -0.8366  0.4086
   10CHTO   O34 4049   4.432   9.634   4.902 -0.7455 -0.1594 -0.1379
   10CHTO   C49 4050   4.324   9.747   4.896  0.8136  0.1610 -0.0600
   10CHTO   H91 4051   4.378   9.841   4.900 -0.3401  0.9723 -2.9548
   10CHTO   C47 4052   4.255   9.738   5.037  0.2784  0.0409  0.0883
   10CHTO   H89 4053   4.334   9.755   5.113  0.6942 -1.9573  0.1244
   10CHTO   O33 4054   4.209   9.604   5.052  0.3773  0.2059 -0.2677
   10CHTO   H70 4055   4.154   9.593   4.976 -1.3940 -4.3639  1.5068
   10CHTO   C45 4056   4.134   9.847   5.042  0.3546  0.2816 -0.4416
   10CHTO   H87 4057   4.046   9.782   5.028  1.4088 -1.0114 -1.2318
   10CHTO    N8 4058   4.130   9.897   5.178 -0.1698 -0.3707 -0.3435
   10CHTO   H75 4059   4.224   9.942   5.207  0.4300 -2.2208  0.7287
   10CHTO   H76 4060   4.109   9.821   5.252 -0.9102 -0.8890 -1.0836
   10CHTO   C43 4061   4.132   9.956   4.918 -0.7114  0.8583  0.2563
   10CHTO   H85 4062   4.043  10.017   4.932  0.1332  1.9723  0.7823
   10CHTO   O29 4063   4.129   9.887   4.796 -0.0607 -0.1531 -0.0792
   10CHTO   C50 4064   4.215   9.770   4.784 -0.0444 -0.3171 -0.7494
   10CHTO   H92 4065   4.149   9.683   4.790  1.1936 -1.1238  2.3903
   10CHTO   C54 4066   4.268   9.762   4.645  0.1452 -0.3230 -0.3077
   10CHTO   O36 4067   4.298   9.897   4.599 -0.2781 -0.5283 -0.2015
   10CHTO   H72 4068   4.260   9.903   4.513  0.3530 -1.5403 -0.5665
   10CHTO   O27 4069   4.242  10.042   4.931  0.3767  0.0443 -0.7990
   10CHTO   C37 4070   4.323  10.136   4.856 -0.4057  0.0267  0.0599
   10CHTO   H79 4071   4.382  10.074   4.786  0.4669  0.3255  0.5287
   10CHTO   C38 4072   4.236  10.235   4.785 -0.7144  0.0626  0.1356
   10CHTO   H80 4073   4.172  10.279   4.862  0.1679 -1.3535  1.6971
   10CHTO   O31 4074   4.160  10.167   4.685 -0.2994 -0.5091  0.5204
   10CHTO   H68 4075   4.094  10.113   4.724 -0.3504  0.7059  2.2044
   10CHTO   C39 4076   4.325  10.348   4.713  0.3725  0.5168 -0.0682
   10CHTO   H81 4077   4.396  10.305   4.642  0.0977  0.1085 -0.0945
   10CHTO    N7 4078   4.243  10.454   4.649  1.2313  0.5848 -1.0381
   10CHTO   H73 4079   4.176  10.418   4.573 -1.2900  1.5506  0.6525
   10CHTO   H74 4080   4.193  10.512   4.725  0.7189  1.2877 -1.9033
   10CHTO   C40 4081   4.427  10.406   4.822 -0.2813  0.5862 -0.0883
   10CHTO   H82 4082   4.364  10.459   4.894  2.7960  2.8505  1.0783
   10CHTO   O26 4083   4.506  10.304   4.883  0.1129  0.6486  1.0838
   10CHTO   C41 4084   4.426  10.209   4.952  0.4372 -0.0074  0.2569
   10CHTO   H83 4085   4.362  10.262   5.024 -1.1557 -2.0585  0.3852
   10CHTO   C52 4086   4.526  10.117   5.032 -0.0860 -0.9165  0.3936
   10CHTO   O35 4087   4.597  10.023   4.943 -0.4680  0.0894  0.4173
   10CHTO   H71 4088   4.662   9.988   5.000 -0.2539 -0.3688 -0.1106
   10CHTO   O28 4089   4.508  10.504   4.765 -0.0878 -0.3531 -0.0376
   10CHTO   C42 4090   4.534  10.628   4.838 -0.3459  0.0035  0.1931
   10CHTO   H84 4091   4.491  10.616   4.938  1.2633 -1.7103  0.7019
   10CHTO   C44 4092   4.466  10.755   4.774 -0.3104 -0.5716  0.7069
   10CHTO   H86 4093   4.470  10.751   4.665  0.2603 -0.1148  0.7104
   10CHTO   O32 4094   4.324  10.735   4.799 -0.2416  0.0688 -0.0816
   10CHTO   H69 4095   4.294  10.753   4.886 -2.0233 -2.4787 -0.0997
   10CHTO   C48 4096   4.516  10.897   4.825  0.2416 -0.1778 -0.3761
   10CHTO   H90 4097   4.482  10.899   4.929  1.9148 -1.2255  0.2192
   10CHTO    N9 4098   4.457  11.008   4.754  0.3315  0.7604  0.6405
   10CHTO   H77 4099   4.444  11.100   4.810  1.0278  2.3243 -1.6808
   10CHTO   H78 4100   4.374  10.990   4.686  1.7798  0.7509 -1.1683
   10CHTO   C51 4101   4.672  10.891   4.834 -0.1948  0.7721 -0.7088
   10CHTO   H93 4102   4.709  10.870   4.734 -0.4514 -0.4463 -0.5548
   10CHTO   O30 4103   4.718  10.791   4.922  0.1695 -0.0901 -0.5154
   10CHTO   C46 4104   4.691  10.649   4.854  0.0691  0.4545  0.2114
   10CHTO   H88 4105   4.748  10.646   4.762 -0.3894 -0.2728 -0.0509
   10CHTO   C53 4106   4.744  10.537   4.947 -0.0320  0.3034  0.7753
   10CHTO   O72 4107   4.883  10.550   4.955  0.2094  0.2518 -0.5333
   10CHTO  H199 4108   4.921  10.603   5.022  2.3005  1.0353 -2.2856
   10CHTO   O22 4109   4.737  11.009   4.891  0.0413  0.0862 -0.1316
   10CHTO   C31 4110   4.868  11.048   4.837  0.3896  0.2666 -0.0165
   10CHTO   H59 4111   4.892  11.139   4.895 -0.4215  0.2135  0.4114
   10CHTO   C29 4112   4.982  10.947   4.864  0.0097 -0.5699  0.1176
   10CHTO   H57 4113   4.958  10.850   4.818 -0.4712 -0.2922 -0.2192
   10CHTO   O21 4114   4.982  10.909   5.005 -0.7333 -0.2509  1.2891
   10CHTO   H37 4115   4.902  10.865   5.028 -1.4015  0.7765  0.9646
   10CHTO   C27 4116   5.123  10.997   4.806 -0.5916 -0.3173 -0.3726
   10CHTO   H55 4117   5.160  11.086   4.860 -1.2952  0.2904 -0.8833
   10CHTO    N5 4118   5.223  10.891   4.810 -0.2415 -0.2283 -0.7177
   10CHTO   H43 4119   5.280  10.899   4.901  2.9313  1.9514 -2.7926
   10CHTO   H44 4120   5.173  10.795   4.811 -0.0523 -0.3099  0.9309
   10CHTO   C25 4121   5.101  11.040   4.652 -0.1542 -0.8498  0.3873
   10CHTO   H53 4122   5.066  10.955   4.593 -0.9583 -0.6457  0.5602
   10CHTO   O17 4123   4.991  11.137   4.643  0.5223  0.4192  0.1180
   10CHTO   C32 4124   4.865  11.096   4.691  0.3145  0.1804 -0.5985
   10CHTO   H60 4125   4.830  11.014   4.629 -0.8762  0.3574 -0.1890
   10CHTO   C36 4126   4.767  11.203   4.668  0.6619  0.4707 -0.0238
   10CHTO   O25 4127   4.731  11.231   4.530  0.1795 -0.2049 -0.4403
   10CHTO   H40 4128   4.749  11.164   4.466 -0.9350  0.5692 -1.5882
   10CHTO   O15 4129   5.218  11.115   4.591  0.1690  0.5651 -0.0937
   10CHTO   C19 4130   5.243  11.193   4.466 -0.0600  0.6826 -0.3653
   10CHTO   H47 4131   5.186  11.138   4.390  0.8462  0.5121 -0.9378
   10CHTO   C20 4132   5.202  11.343   4.468  0.4374 -0.0957  0.0667
   10CHTO   H48 4133   5.241  11.395   4.556  2.5259 -3.2468  1.1030
   10CHTO   O19 4134   5.058  11.349   4.475 -0.3069  0.2639  0.0830
   10CHTO   H35 4135   5.008  11.331   4.398 -0.7445 -0.0265  0.4337
   10CHTO   C21 4136   5.244  11.437   4.343  0.0093  0.3464  0.1744
   10CHTO   H49 4137   5.186  11.406   4.256  1.7023 -1.0348 -0.5078
   10CHTO    N4 4138   5.233  11.585   4.367 -0.1923  0.4514  0.3869
   10CHTO   H41 4139   5.136  11.631   4.380  0.7076  2.3430  0.5518
   10CHTO   H42 4140   5.301  11.611   4.447  0.9416 -0.8917 -0.1181
   10CHTO   C22 4141   5.387  11.403   4.312 -0.5249  0.0884 -0.4436
   10CHTO   H50 4142   5.445  11.422   4.403 -0.2646 -1.0134 -0.3727
   10CHTO   O14 4143   5.400  11.261   4.291  0.5583  0.0675  0.4893
   10CHTO   C23 4144   5.388  11.187   4.416 -0.2297 -0.3324  0.1529
   10CHTO   H51 4145   5.461  11.225   4.489  1.0914 -2.6260  0.0675
   10CHTO   C34 4146   5.423  11.042   4.394 -0.0819  0.5405 -0.4848
   10CHTO   O23 4147   5.558  11.022   4.356  0.5621  0.3191  0.4742
   10CHTO   H38 4148   5.576  10.930   4.354  0.9475  0.4212 -1.3816
   10CHTO   O16 4149   5.442  11.462   4.194 -0.0916  0.1528  0.1416
   10CHTO   C24 4150   5.600  11.487   4.213 -0.8304  0.7125 -0.4199
   10CHTO   H52 4151   5.634  11.434   4.302 -2.5026  1.1762  0.5163
   10CHTO   C26 4152   5.638  11.634   4.221  0.4186  0.0583  0.3464
   10CHTO   H54 4153   5.612  11.680   4.124  1.2451 -0.8160 -0.2970
   10CHTO   O20 4154   5.579  11.689   4.341  0.2604  0.0576 -0.3955
   10CHTO   H36 4155   5.579  11.782   4.326  0.5075  0.2507  0.7499
   10CHTO   C30 4156   5.796  11.643   4.225  0.0920  0.4638 -0.0094
   10CHTO   H58 4157   5.847  11.607   4.316 -1.4784 -0.5136  0.5086
   10CHTO    N6 4158   5.848  11.786   4.219 -0.4393 -0.0327  0.1336
   10CHTO   H45 4159   5.944  11.795   4.268  0.1065 -0.8299 -0.7635
   10CHTO   H46 4160   5.860  11.812   4.115 -1.2176  0.5127  0.1782
   10CHTO   C33 4161   5.856  11.559   4.108  0.2561  0.1158  0.5644
   10CHTO   H61 4162   5.815  11.601   4.016  0.7458  0.3886  0.4662
   10CHTO   O18 4163   5.810  11.424   4.117  0.4468 -0.4407 -0.6140
   10CHTO   C28 4164   5.669  11.413   4.095 -0.0645 -0.0461  0.3822
   10CHTO   H56 4165   5.639  11.453   3.998 -1.3443  1.2469  1.2822
   10CHTO   C35 4166   5.628  11.266   4.095  0.3054  0.1395  0.2888
   10CHTO   O24 4167   5.674  11.178   3.990  0.0081  0.4183  0.3191
   10CHTO   H39 4168   5.659  11.211   3.904  0.1381 -0.8841 -0.2149
   10CHTO    O9 4169   6.000  11.568   4.092  0.2665 -0.1957 -0.3383
   10CHTO   C13 4170   6.080  11.539   3.940 -0.1338 -0.0540  0.5827
   10CHTO   H26 4171   6.056  11.629   3.881  2.2924  0.3521  0.1587
   10CHTO   C11 4172   6.027  11.406   3.867  0.2648  0.0246 -0.0991
   10CHTO   H24 4173   5.922  11.425   3.840  0.0053  0.7117  1.3601
   10CHTO    O8 4174   6.028  11.290   3.959  0.6535  0.0529  0.2696
   10CHTO    H3 4175   6.115  11.262   3.981  0.8432  0.1388 -0.3594
   10CHTO    C9 4176   6.111  11.390   3.735 -0.6246 -0.2878 -0.6369
   10CHTO   H22 4177   6.102  11.491   3.691 -1.0922  0.2477  0.6796
   10CHTO    N2 4178   6.053  11.301   3.637  0.1695 -0.5512 -0.6850
   10CHTO   H10 4179   5.964  11.337   3.586  0.5468  0.3564 -0.7086
   10CHTO   H11 4180   6.130  11.280   3.564  1.3621  0.2783  0.3199
   10CHTO    C7 4181   6.260  11.366   3.778  0.0516  0.1507 -0.2230
   10CHTO   H20 4182   6.319  11.353   3.685  2.3813 -0.5011  1.3049
   10CHTO    O4 4183   6.303  11.479   3.850 -0.1756 -0.8901  0.1877
   10CHTO   C14 4184   6.241  11.540   3.964  0.3653  0.0176  0.3013
   10CHTO   H27 4185   6.275  11.642   3.991  1.7925  0.0590 -1.5088
   10CHTO   C18 4186   6.258  11.456   4.089 -0.1229  0.2052  0.0950
   10CHTO   O13 4187   6.392  11.455   4.118 -0.1011  0.1712 -0.4442
   10CHTO    H7 4188   6.402  11.459   4.211  1.6106  1.0634 -0.6346
   10CHTO    O2 4189   6.293  11.225   3.865 -0.2741  0.1059  0.0997
   10CHTO    C1 4190   6.423  11.181   3.892  0.1652  0.5527 -0.3034
   10CHTO   H14 4191   6.447  11.194   4.000  0.6397  0.3504 -0.3848
   10CHTO    C2 4192   6.549  11.238   3.811  0.4324 -0.1894 -0.2477
   10CHTO   H15 4193   6.508  11.247   3.709  0.2281 -2.4075 -0.3949
   10CHTO    O6 4194   6.594  11.364   3.857  0.0724  0.1966  0.3536
   10CHTO    H1 4195   6.562  11.369   3.946 -0.6567 -0.0164  0.1091
   10CHTO    C3 4196   6.678  11.135   3.817 -0.2639  0.2476 -0.2834
   10CHTO   H16 4197   6.728  11.145   3.915  0.7561  2.1399 -0.9778
   10CHTO    N1 4198   6.783  11.183   3.722 -0.7798 -0.8718 -0.0413
   10CHTO    H8 4199   6.867  11.116   3.735  0.9330  1.3856  0.9786
   10CHTO    H9 4200   6.751  11.179   3.619  3.1914  0.5303 -1.4345
   10CHTO    C4 4201   6.646  10.982   3.791 -0.2320 -0.2897  0.2535
   10CHTO   H17 4202   6.615  10.965   3.688  1.0494  1.6247 -0.4809
   10CHTO    O1 4203   6.533  10.947   3.874  0.1552 -0.5192  0.4518
   10CHTO    C5 4204   6.409  11.025   3.862  0.5236 -0.3900 -0.4286
   10CHTO   H18 4205   6.389  11.019   3.755 -0.5733  0.7124 -0.2972
   10CHTO   C16 4206   6.293  10.948   3.941  0.4177 -0.0569 -0.6112
   10CHTO   O11 4207   6.270  10.824   3.870 -0.0774  0.0213 -0.5265
   10CHTO    H5 4208   6.345  10.772   3.851 -0.2922 -1.2224  1.8140
   10CHTO    O3 4209   6.762  10.901   3.814 -0.0954 -0.2840  0.6936
   10CHTO    C6 4210   6.745  10.757   3.788 -0.1458 -0.4206 -0.2138
   10CHTO   H19 4211   6.642  10.723   3.802 -0.0851  0.2500  1.9727
   10CHTO    C8 4212   6.785  10.728   3.645  0.6926  0.5412  0.2468
   10CHTO   H21 4213   6.877  10.783   3.625 -0.4364  2.5213  0.3311
   10CHTO    O7 4214   6.693  10.786   3.553 -0.4525 -0.0849 -0.4993
   10CHTO    H2 4215   6.738  10.824   3.480  0.3611  1.3933  0.7417
   10CHTO   C12 4216   6.788  10.576   3.613 -0.3049  1.0929 -0.3117
   10CHTO   H25 4217   6.684  10.546   3.589 -0.2515  0.8284 -0.2103
   10CHTO    N3 4218   6.870  10.540   3.484 -0.3041  0.0979  0.1659
   10CHTO   H12 4219   6.809  10.562   3.397  0.7842  1.6284 -0.2357
   10CHTO   H13 4220   6.964  10.592   3.475 -0.3391  0.1549  0.1284
   10CHTO   C15 4221   6.841  10.486   3.731 -0.1173 -1.0684 -0.1399
   10CHTO   H28 4222   6.949  10.487   3.734 -0.1373  0.1592  0.4824
   10CHTO   O10 4223   6.786  10.364   3.728  0.1609  0.2897 -0.3633
   10CHTO    H4 4224   6.811  10.304   3.796  1.4903 -0.1015 -1.1729
   10CHTO    O5 4225   6.791  10.536   3.859  0.3205 -0.6276 -0.0805
   10CHTO   C10 4226   6.834  10.672   3.878 -0.1306 -0.2565 -1.0215
   10CHTO   H23 4227   6.934  10.691   3.839  0.2736  0.6512  0.4174
   10CHTO   C17 4228   6.816  10.724   4.021 -0.7221 -0.0634 -0.0659
   10CHTO   O12 4229   6.879  10.645   4.117  0.1675 -0.4646  0.1002
   10CHTO    H6 4230   6.888  10.688   4.200 -2.1084  1.2527 -0.4890
   11CHTO  H203 4231   5.925   6.024   0.597  1.8425 -2.2661  3.0121
   11CHTO   O82 4232   5.916   6.106   0.642 -0.2369 -0.5215 -0.4492
   11CHTO  C123 4233   5.852   6.078   0.773 -0.7091  0.2296  0.0233
   11CHTO  H227 4234   5.879   5.977   0.807 -2.9573 -0.7502 -0.9788
   11CHTO   O77 4235   5.915   6.184   0.851 -0.2421 -0.1815 -0.1016
   11CHTO  C118 4236   5.877   6.202   0.983 -0.0627 -0.0070  0.4744
   11CHTO  H222 4237   5.894   6.105   1.033  0.1058 -1.3341 -2.1031
   11CHTO  C125 4238   5.950   6.323   1.051  0.6707  0.9194  0.5385
   11CHTO   O84 4239   6.086   6.295   1.075 -0.3815  0.0813 -0.0966
   11CHTO  H205 4240   6.120   6.367   1.123 -0.5572  0.5109 -0.6153
   11CHTO  C114 4241   5.725   6.230   0.994 -0.3276 -0.8073 -0.7319
   11CHTO  H218 4242   5.708   6.329   0.953  1.8781  0.1988  0.6453
   11CHTO  C116 4243   5.642   6.117   0.915  0.3269  0.2668 -0.1491
   11CHTO  H220 4244   5.633   6.026   0.977 -0.8825 -0.1068 -0.8438
   11CHTO   O79 4245   5.507   6.164   0.908  0.6358  0.1506 -0.2011
   11CHTO  H201 4246   5.454   6.149   0.984 -0.6556 -0.8073 -1.2776
   11CHTO  C120 4247   5.691   6.092   0.764 -0.1239  0.5515  0.4504
   11CHTO  H224 4248   5.662   6.185   0.711 -0.3139  0.3832  0.2582
   11CHTO   N21 4249   5.621   5.977   0.695 -0.7305 -0.2538 -0.0050
   11CHTO  H211 4250   5.676   5.939   0.610 -1.0785  0.1185 -0.3971
   11CHTO  H212 4251   5.594   5.898   0.764 -1.4388  0.6896  0.8123
   11CHTO   O75 4252   5.697   6.235   1.138  0.0446 -0.3015 -0.2172
   11CHTO  C112 4253   5.564   6.357   1.183  0.9344 -0.3995 -0.3703
   11CHTO  H216 4254   5.516   6.316   1.273  1.0413 -1.0514 -0.6148
   11CHTO   O73 4255   5.472   6.367   1.072 -0.4171 -0.4025 -0.5151
   11CHTO  C113 4256   5.353   6.441   1.111 -0.2898  0.4466 -0.4415
   11CHTO  H217 4257   5.325   6.403   1.211  0.9142 -1.5915 -0.8670
   11CHTO  C124 4258   5.235   6.412   1.015  0.4997 -0.0026 -0.3035
   11CHTO   O83 4259   5.102   6.404   1.054  0.6850  0.1188 -0.0362
   11CHTO  H204 4260   5.039   6.432   0.990 -0.9495 -1.0204  1.0473
   11CHTO  C109 4261   5.392   6.593   1.129 -1.0687  0.4200 -0.0882
   11CHTO  H213 4262   5.431   6.629   1.032  2.4809 -2.1075  0.3031
   11CHTO  C110 4263   5.506   6.604   1.234  0.1254 -0.3284  0.1579
   11CHTO  H214 4264   5.467   6.606   1.335  0.7116  0.6955  0.3660
   11CHTO   O78 4265   5.552   6.739   1.228 -0.2336  0.4871  0.1095
   11CHTO  H200 4266   5.488   6.803   1.253 -0.4497  0.1133  0.5179
   11CHTO  C111 4267   5.618   6.500   1.214 -0.5309  0.2041  0.4424
   11CHTO  H215 4268   5.685   6.541   1.136 -0.8620  1.5743  0.8703
   11CHTO   N19 4269   5.715   6.485   1.335  0.6712  0.3557  0.0256
   11CHTO  H207 4270   5.671   6.538   1.419 -0.5569 -0.3006 -0.1893
   11CHTO  H208 4271   5.812   6.530   1.317  0.6072  0.3225 -0.4029
   11CHTO   O74 4272   5.283   6.669   1.178  0.3429 -0.1709 -0.1211
   11CHTO  C115 4273   5.215   6.782   1.073  0.3650  0.4775 -0.9559
   11CHTO  H219 4274   5.245   6.764   0.970  0.3469 -1.1160 -0.7042
   11CHTO   O76 4275   5.059   6.763   1.065 -0.5484 -0.5237 -0.1104
   11CHTO  C122 4276   4.979   6.800   1.183 -0.3556 -0.0388  0.1412
   11CHTO  H226 4277   4.967   6.711   1.245 -0.5403 -0.2761 -0.2326
   11CHTO  C126 4278   4.828   6.843   1.153  0.2160 -0.0572 -0.4235
   11CHTO   O85 4279   4.817   6.887   1.021 -0.4327  0.2790 -0.5165
   11CHTO  H206 4280   4.885   6.949   1.006 -0.8904  0.5090 -1.6870
   11CHTO  C121 4281   5.041   6.908   1.283 -0.3977 -0.4543  0.1810
   11CHTO  H225 4282   4.963   6.977   1.320 -0.6650 -0.5256 -0.2405
   11CHTO   O81 4283   5.118   6.851   1.387  0.1381  0.3721  0.3369
   11CHTO  H202 4284   5.189   6.904   1.414 -0.5508  1.3955  0.1591
   11CHTO  C119 4285   5.136   6.995   1.197  0.0917  0.0384 -0.0134
   11CHTO  H223 4286   5.084   7.015   1.103  1.0066  0.3694 -0.4558
   11CHTO  C117 4287   5.260   6.921   1.128  0.3083  0.3882 -0.3205
   11CHTO  H221 4288   5.338   6.899   1.201 -2.1865 -0.5481  2.1638
   11CHTO   N20 4289   5.322   7.002   1.017 -0.6790 -0.0106  0.1308
   11CHTO  H209 4290   5.400   6.946   0.969 -1.0353  0.5783 -1.1667
   11CHTO  H210 4291   5.244   7.028   0.947 -0.3265 -0.3761 -0.3897
   11CHTO   O80 4292   5.147   7.138   1.243  0.3981 -0.2847 -0.8215
   11CHTO  C103 4293   5.210   7.172   1.414 -1.0239 -0.0741 -1.0142
   11CHTO  H190 4294   5.181   7.095   1.485 -0.6837  0.1270 -0.6578
   11CHTO  C101 4295   5.370   7.185   1.426  0.6368  0.2942  0.1056
   11CHTO  H188 4296   5.395   7.228   1.329  1.9790  0.3076  0.4465
   11CHTO   O68 4297   5.431   7.031   1.430  0.3598 -0.5622 -0.5560
   11CHTO  H168 4298   5.390   6.982   1.499  2.0705 -3.0713 -1.2513
   11CHTO   C99 4299   5.411   7.284   1.548  0.0145  1.1307 -0.0356
   11CHTO  H186 4300   5.402   7.220   1.638  3.4194 -0.2573 -0.6129
   11CHTO   N17 4301   5.560   7.345   1.542 -0.2372  0.3670  0.2103
   11CHTO  H174 4302   5.621   7.280   1.480  0.2434  2.3281 -1.4192
   11CHTO  H175 4303   5.599   7.352   1.642 -0.4043  0.2222  0.2847
   11CHTO   C97 4304   5.314   7.405   1.573  0.7993 -0.1792 -0.2770
   11CHTO  H184 4305   5.325   7.479   1.492  1.0931 -0.8029 -0.8109
   11CHTO   O64 4306   5.181   7.358   1.585  0.3194 -0.0864 -0.1728
   11CHTO  C104 4307   5.132   7.299   1.464 -0.1938 -0.1700  0.3360
   11CHTO  H191 4308   5.141   7.381   1.393 -0.5558 -0.6417 -0.2623
   11CHTO  C108 4309   4.982   7.273   1.490  0.0562 -0.1621  0.1128
   11CHTO   O71 4310   4.909   7.253   1.370  0.0873 -0.6189  0.3928
   11CHTO  H171 4311   4.817   7.253   1.385 -0.0581  0.9390 -0.3949
   11CHTO   O62 4312   5.337   7.465   1.703 -0.5854  0.0010  0.2438
   11CHTO   C91 4313   5.267   7.594   1.732 -0.1013  0.4184 -0.1835
   11CHTO  H178 4314   5.179   7.594   1.667 -1.4548  0.3681  1.6076
   11CHTO   C92 4315   5.335   7.722   1.672 -0.0996  0.3568 -0.0948
   11CHTO  H179 4316   5.380   7.699   1.574 -0.5123 -0.2774 -0.1391
   11CHTO   O66 4317   5.240   7.820   1.650  0.1639 -0.8762 -0.4118
   11CHTO  H166 4318   5.284   7.889   1.604  1.1354 -1.0789  0.2094
   11CHTO   C93 4319   5.448   7.788   1.762  0.5709  0.6069  0.2714
   11CHTO  H180 4320   5.459   7.897   1.753  0.2460  0.5859 -0.4430
   11CHTO   N16 4321   5.581   7.729   1.730  0.3189 -0.0330  0.8159
   11CHTO  H172 4322   5.594   7.726   1.623  0.8191 -0.4192  0.8851
   11CHTO  H173 4323   5.659   7.779   1.785 -1.2780  0.6646  2.5128
   11CHTO   C94 4324   5.425   7.757   1.917  1.1443  0.2250 -0.2421
   11CHTO  H181 4325   5.467   7.662   1.947 -0.1376  0.4225  2.3705
   11CHTO   O61 4326   5.287   7.733   1.942 -0.2765 -0.1387  0.4028
   11CHTO   C95 4327   5.233   7.613   1.884 -0.4216  0.7904  0.1875
   11CHTO  H182 4328   5.274   7.526   1.935  0.2215 -0.0533 -1.7425
   11CHTO  C106 4329   5.076   7.604   1.909 -0.7239 -0.2519 -0.1731
   11CHTO   O69 4330   5.020   7.474   1.892 -0.4055  0.3276  0.0639
   11CHTO  H169 4331   4.928   7.490   1.881 -0.4724 -1.9151 -3.3800
   11CHTO   O63 4332   5.453   7.875   2.021  0.3064  0.3163 -0.1265
   11CHTO   C96 4333   5.597   7.866   2.111  0.0694  0.2836  0.8982
   11CHTO  H183 4334   5.675   7.846   2.037 -0.8193  0.7843 -0.1976
   11CHTO   C98 4335   5.600   7.753   2.215  0.3226  0.7362 -0.2212
   11CHTO  H185 4336   5.515   7.764   2.284  1.8566  1.8311  1.5634
   11CHTO   O67 4337   5.578   7.628   2.152  0.0348 -0.5638  0.5033
   11CHTO  H167 4338   5.510   7.637   2.087  0.0096 -0.9574  0.4728
   11CHTO  C102 4339   5.737   7.750   2.297 -0.1954  0.0771 -0.0699
   11CHTO  H189 4340   5.819   7.754   2.224  1.1790  0.5894  1.4621
   11CHTO   N18 4341   5.759   7.633   2.382 -0.7468 -0.0128 -0.2668
   11CHTO  H176 4342   5.864   7.611   2.392 -0.9784 -0.9766  0.1967
   11CHTO  H177 4343   5.711   7.547   2.336  1.8264 -1.6575  0.0112
   11CHTO  C105 4344   5.746   7.887   2.369 -0.4910  0.0285  0.5553
   11CHTO  H192 4345   5.668   7.896   2.445  0.4048  0.3713  1.4406
   11CHTO   O65 4346   5.734   8.005   2.281  0.5086  0.7058 -0.1729
   11CHTO  C100 4347   5.616   7.999   2.192  0.1888  0.0461  0.6941
   11CHTO  H187 4348   5.524   8.015   2.249 -1.3328  0.2205 -1.7083
   11CHTO  C107 4349   5.626   8.112   2.093 -0.3401  0.0005 -0.2701
   11CHTO   O70 4350   5.617   8.240   2.163  0.0727  0.1458  0.3017
   11CHTO  H170 4351   5.679   8.239   2.233 -0.1510 -0.7555  0.4968
   11CHTO   O57 4352   5.904   7.876   2.433 -0.5153  0.6824 -0.4844
   11CHTO   C85 4353   5.926   7.938   2.564 -0.6869 -0.6090  0.0176
   11CHTO  H157 4354   5.828   7.971   2.604 -0.2020  1.1447 -0.2101
   11CHTO   C83 4355   6.002   8.075   2.546 -0.5336 -0.3391  0.7881
   11CHTO  H155 4356   5.940   8.153   2.502  1.9196  1.9929  1.3429
   11CHTO   O56 4357   6.106   8.051   2.451 -0.3255  0.1182 -0.0106
   11CHTO  H135 4358   6.130   8.132   2.409  2.5815 -0.0974  1.1520
   11CHTO   C81 4359   6.060   8.127   2.683 -0.3190 -0.2478  0.8727
   11CHTO  H153 4360   5.973   8.147   2.746 -1.2031  2.0011 -0.9988
   11CHTO   N14 4361   6.132   8.261   2.677  0.1615 -0.0986  0.1658
   11CHTO  H141 4362   6.232   8.246   2.643 -0.1058  0.8640 -1.0741
   11CHTO  H142 4363   6.076   8.319   2.607  1.3132  3.8781  2.3955
   11CHTO   C79 4364   6.149   8.020   2.755 -0.3201 -0.3329  0.4490
   11CHTO  H151 4365   6.186   8.066   2.847  0.1815 -1.9285  1.0551
   11CHTO   O52 4366   6.058   7.906   2.784  0.0301 -0.1323 -0.2403
   11CHTO   C86 4367   6.002   7.843   2.667  0.3495 -0.3482 -0.3600
   11CHTO  H158 4368   6.088   7.806   2.607  0.9070 -0.5798  0.5818
   11CHTO   C90 4369   5.922   7.716   2.712 -0.1257 -0.5318  0.1979
   11CHTO   O60 4370   6.004   7.613   2.765 -0.3151 -0.1492  0.3767
   11CHTO  H138 4371   5.951   7.536   2.773  0.5456 -0.7562  0.3065
   11CHTO   O50 4372   6.271   7.991   2.681 -0.1843 -0.0507  0.4112
   11CHTO   C73 4373   6.384   7.907   2.709  1.3961  0.2636 -0.2847
   11CHTO  H145 4374   6.351   7.830   2.780  0.0994 -1.0655 -2.2618
   11CHTO   C74 4375   6.497   7.986   2.767  0.0563 -0.1766  0.3572
   11CHTO  H146 4376   6.461   8.037   2.858  1.4453  1.1129  0.2250
   11CHTO   O54 4377   6.591   7.883   2.808 -0.4252  0.2165  0.6063
   11CHTO  H133 4378   6.650   7.922   2.871 -4.1626  1.8916  3.2697
   11CHTO   C75 4379   6.551   8.087   2.659 -0.9648 -0.2036  0.5551
   11CHTO  H147 4380   6.473   8.161   2.639  0.2862  0.4583 -2.0273
   11CHTO   N13 4381   6.668   8.165   2.712  0.0999  0.2315 -0.2182
   11CHTO  H139 4382   6.647   8.215   2.806 -2.5943  1.1611 -1.2813
   11CHTO  H140 4383   6.708   8.229   2.636  0.7019 -0.3475 -0.3923
   11CHTO   C76 4384   6.577   8.012   2.523 -0.5064 -0.3116 -0.2213
   11CHTO  H148 4385   6.666   7.951   2.538 -0.7850 -0.5210  0.5935
   11CHTO   O49 4386   6.478   7.919   2.474 -0.3624  0.3572 -0.2635
   11CHTO   C77 4387   6.439   7.830   2.580 -0.4238 -0.1290  0.1540
   11CHTO  H149 4388   6.515   7.759   2.612  0.0673  1.1565  1.8742
   11CHTO   C88 4389   6.334   7.737   2.519  0.0629 -0.3735 -0.5707
   11CHTO   O58 4390   6.294   7.633   2.613  0.0582  0.2273  0.9444
   11CHTO  H136 4391   6.291   7.671   2.698 -1.3514  0.9450  0.5773
   11CHTO   O51 4392   6.600   8.140   2.414  0.1148 -0.1514  0.7373
   11CHTO   C78 4393   6.681   8.086   2.285 -0.6568 -0.1135 -0.6527
   11CHTO  H150 4394   6.685   7.975   2.295  0.0521 -0.2087 -1.9409
   11CHTO   C80 4395   6.827   8.140   2.274  0.2707 -0.0078  0.4402
   11CHTO  H152 4396   6.821   8.250   2.264 -0.1233 -0.2666 -2.7568
   11CHTO   O55 4397   6.884   8.114   2.402 -0.4904 -0.0726  0.4651
   11CHTO  H134 4398   6.913   8.192   2.446 -2.0306  0.8679 -0.1670
   11CHTO   C84 4399   6.916   8.090   2.148 -0.0400  0.4623  0.9949
   11CHTO  H156 4400   6.933   7.984   2.165 -1.8231 -0.1709 -0.9616
   11CHTO   N15 4401   7.054   8.150   2.137  0.1928  0.1874 -0.3086
   11CHTO  H143 4402   7.056   8.245   2.088 -2.1760  0.1365 -0.5730
   11CHTO  H144 4403   7.104   8.161   2.231  1.4249  2.2915 -1.1839
   11CHTO   C87 4404   6.822   8.114   2.023  0.1085 -0.3488  0.7222
   11CHTO  H159 4405   6.801   8.216   1.991  2.0786 -0.7135 -1.8943
   11CHTO   O53 4406   6.661   8.059   2.048 -0.2083 -0.0079 -0.2760
   11CHTO   C82 4407   6.601   8.127   2.158  0.0730  0.0208 -0.8021
   11CHTO  H154 4408   6.600   8.236   2.156 -0.6364  0.0993  1.9196
   11CHTO   C89 4409   6.458   8.086   2.172  0.1871 -0.0294  0.5677
   11CHTO   O59 4410   6.439   7.945   2.202  0.7644 -0.7362  0.4122
   11CHTO  H137 4411   6.422   7.927   2.293 -1.0122 -0.2336  0.1982
   11CHTO   O45 4412   6.886   8.041   1.905  0.0060  0.8055  0.1724
   11CHTO   C67 4413   6.808   8.049   1.781 -0.6695  0.0368 -0.2169
   11CHTO  H124 4414   6.704   8.027   1.804 -0.0189 -2.7821  0.2931
   11CHTO   C65 4415   6.817   8.190   1.707 -0.3185 -0.2186 -0.2969
   11CHTO  H122 4416   6.905   8.239   1.750 -0.8557  0.5732 -0.0918
   11CHTO   O44 4417   6.706   8.265   1.759 -0.3071 -0.5298  0.8530
   11CHTO  H102 4418   6.720   8.355   1.740  1.1033 -1.2663 -2.0019
   11CHTO   C63 4419   6.833   8.199   1.549  0.4427  0.6014  0.3277
   11CHTO  H120 4420   6.936   8.178   1.520  0.1312 -0.6881  0.1389
   11CHTO   N11 4421   6.799   8.324   1.478  0.5145 -0.7800  0.8649
   11CHTO  H108 4422   6.879   8.394   1.476 -0.7474  0.7188 -3.9104
   11CHTO  H109 4423   6.712   8.365   1.526  0.8789  0.6668  0.3120
   11CHTO   C61 4424   6.755   8.077   1.485 -0.4810 -0.6844 -0.2466
   11CHTO  H118 4425   6.778   8.083   1.377 -1.2415  2.8012 -0.2674
   11CHTO   O40 4426   6.789   7.942   1.543  0.3571  0.3919  0.3546
   11CHTO   C68 4427   6.860   7.939   1.673  0.0333  0.8211 -0.3863
   11CHTO  H125 4428   6.962   7.963   1.638 -0.5538  1.4137 -1.7464
   11CHTO   C72 4429   6.863   7.792   1.717  0.2288 -0.0705  0.0764
   11CHTO   O48 4430   6.922   7.773   1.844  0.2928 -0.6151  0.5627
   11CHTO  H105 4431   6.968   7.692   1.848  1.0293 -0.2190  0.1642
   11CHTO   O38 4432   6.611   8.102   1.497 -0.2044 -0.2237 -0.0296
   11CHTO   C55 4433   6.526   8.022   1.416 -0.8521 -0.8929  0.1122
   11CHTO  H112 4434   6.571   7.932   1.373  0.0492 -0.4216  0.0516
   11CHTO   C56 4435   6.459   8.108   1.304  0.0365  0.0639 -0.7332
   11CHTO  H113 4436   6.405   8.188   1.357 -1.9214 -1.3918 -0.4890
   11CHTO   O42 4437   6.567   8.169   1.229  0.0128 -1.2098 -0.2910
   11CHTO  H100 4438   6.601   8.098   1.177  0.2996 -0.5264 -1.0527
   11CHTO   C57 4439   6.364   8.024   1.216 -0.6384  0.3020  0.2958
   11CHTO  H114 4440   6.432   7.961   1.159 -2.4685 -1.7440  0.2750
   11CHTO   N10 4441   6.291   8.102   1.115  0.4497  0.5175  0.2779
   11CHTO  H106 4442   6.257   8.197   1.153 -1.8476 -0.0532 -0.2598
   11CHTO  H107 4443   6.360   8.119   1.033  0.6087  1.0414  0.5216
   11CHTO   C58 4444   6.268   7.944   1.305 -0.4396 -0.3962  0.6040
   11CHTO  H115 4445   6.198   8.018   1.349  0.8031  1.3299 -0.2936
   11CHTO   O37 4446   6.332   7.873   1.418  0.5635  0.3443 -0.2841
   11CHTO   C59 4447   6.403   7.967   1.501  0.0251 -0.4608  0.0835
   11CHTO  H116 4448   6.332   8.045   1.529  2.5041  1.1433  2.1973
   11CHTO   C70 4449   6.447   7.892   1.628 -0.5621  0.3904  0.7263
   11CHTO   O46 4450   6.481   7.986   1.730  0.5672  0.1300 -0.1659
   11CHTO  H103 4451   6.566   8.022   1.713  0.2124  0.6299 -0.9317
   11CHTO   O39 4452   6.196   7.827   1.201  0.3047  0.2017 -0.2752
   11CHTO   C60 4453   6.053   7.815   1.227  0.3098  0.0414 -0.2119
   11CHTO  H117 4454   6.021   7.851   1.325 -3.8494 -1.5300 -0.8960
   11CHTO   C62 4455   5.960   7.891   1.124 -0.3688  0.0306  0.0719
   11CHTO  H119 4456   5.979   7.998   1.144 -2.0833 -0.1358  2.8854
   11CHTO   O43 4457   5.996   7.866   0.985  0.5409 -0.0335  0.3244
   11CHTO  H101 4458   5.929   7.900   0.928  0.2314 -0.6762  0.2945
   11CHTO   C66 4459   5.799   7.867   1.152  0.1030 -0.0968  0.4286
   11CHTO  H123 4460   5.775   7.913   1.248  2.5376  0.9240  0.5909
   11CHTO   N12 4461   5.706   7.946   1.057 -0.0857 -0.7427 -0.0344
   11CHTO  H110 4462   5.603   7.929   1.085  0.2359  0.9014  2.2774
   11CHTO  H111 4463   5.735   7.934   0.953  0.7724  2.5852 -0.2356
   11CHTO   C69 4464   5.772   7.715   1.148  0.2102  0.2273  0.0676
   11CHTO  H126 4465   5.784   7.669   1.048  2.3737 -0.2796  0.5456
   11CHTO   O41 4466   5.862   7.650   1.247  0.7397  0.2853  0.6798
   11CHTO   C64 4467   6.014   7.661   1.219  0.6440  0.5751  0.5871
   11CHTO  H121 4468   6.030   7.622   1.116 -1.9736  2.4352 -0.5690
   11CHTO   C71 4469   6.102   7.577   1.323 -0.5597 -0.5188 -0.3030
   11CHTO   O47 4470   6.227   7.533   1.272  0.7285  0.1632 -0.2144
   11CHTO  H104 4471   6.220   7.441   1.256 -0.3748  0.4317 -1.3555
   11CHTO   O34 4472   5.598   7.699   1.202  0.0146  0.0869  0.2396
   11CHTO   C49 4473   5.454   7.654   1.233 -0.1441  0.1086  0.1669
   11CHTO   H91 4474   5.450   7.634   1.340  0.9580 -1.6559 -0.1014
   11CHTO   C47 4475   5.431   7.521   1.142  0.8191 -0.2568  0.0403
   11CHTO   H89 4476   5.329   7.480   1.160  1.5259 -3.9438 -3.5562
   11CHTO   O33 4477   5.524   7.421   1.188  1.0298 -0.1570 -0.0577
   11CHTO   H70 4478   5.519   7.410   1.281  3.7280 -1.3350 -0.0065
   11CHTO   C45 4479   5.445   7.558   0.994  0.2934  0.5781  0.3912
   11CHTO   H87 4480   5.539   7.613   0.984 -0.5184  1.3912 -3.7325
   11CHTO    N8 4481   5.449   7.453   0.892 -0.5214  0.4607  0.0733
   11CHTO   H75 4482   5.491   7.483   0.797  0.0976  1.0757  0.5262
   11CHTO   H76 4483   5.344   7.432   0.884 -0.9609  2.5007  0.0449
   11CHTO   C43 4484   5.325   7.670   0.963  0.2298 -0.5185  0.1999
   11CHTO   H85 4485   5.350   7.702   0.861 -0.8153  1.3785  0.5073
   11CHTO   O29 4486   5.321   7.780   1.051 -0.3771 -0.3623 -0.1976
   11CHTO   C50 4487   5.351   7.764   1.190  0.3041 -0.3822  0.3408
   11CHTO   H92 4488   5.391   7.861   1.224  0.2305 -0.2158 -0.0488
   11CHTO   C54 4489   5.221   7.752   1.273  0.3010 -0.1174  0.1121
   11CHTO   O36 4490   5.134   7.868   1.251 -0.4694  0.3731  0.3043
   11CHTO   H72 4491   5.077   7.864   1.325 -0.1560 -1.9071  0.4388
   11CHTO   O27 4492   5.194   7.613   0.956 -0.2468  0.1286  0.0408
   11CHTO   C37 4493   5.059   7.613   0.966  0.2675  0.1810  0.3132
   11CHTO   H79 4494   5.034   7.619   1.073  0.0734 -1.1553  0.3538
   11CHTO   C38 4495   4.984   7.722   0.891 -0.0270  0.0791  0.4108
   11CHTO   H80 4496   4.998   7.714   0.783 -1.7370  2.9455 -0.0754
   11CHTO   O31 4497   5.041   7.847   0.932 -0.0039  0.1945  0.2709
   11CHTO   H68 4498   5.038   7.864   1.025  2.3262 -3.9326  1.2383
   11CHTO   C39 4499   4.829   7.713   0.927  0.1049  0.2787 -0.3145
   11CHTO   H81 4500   4.814   7.723   1.034 -1.9703 -1.9934 -0.3574
   11CHTO    N7 4501   4.746   7.822   0.860  0.3394 -0.3960  0.2364
   11CHTO   H73 4502   4.706   7.793   0.763  0.4685 -1.1264  0.3979
   11CHTO   H74 4503   4.808   7.906   0.835 -0.4420  0.2684  0.5094
   11CHTO   C40 4504   4.768   7.575   0.886  0.3274  0.3856 -0.6661
   11CHTO   H82 4505   4.752   7.567   0.778 -1.4578 -0.4956 -0.3582
   11CHTO   O26 4506   4.849   7.472   0.937 -0.0843 -0.4854  0.0232
   11CHTO   C41 4507   4.995   7.482   0.908 -0.5295  0.4080  0.7732
   11CHTO   H83 4508   5.010   7.478   0.799  0.1964  0.9118  0.8567
   11CHTO   C52 4509   5.058   7.359   0.987  0.0631 -0.0756 -0.4497
   11CHTO   O35 4510   5.003   7.243   0.948  0.1861  0.2485 -0.4143
   11CHTO   H71 4511   4.942   7.257   0.878 -1.0742  1.9771  0.9827
   11CHTO   O28 4512   4.640   7.559   0.951  0.2880  0.8624 -0.3754
   11CHTO   C42 4513   4.559   7.444   0.910 -0.1262 -0.0702 -0.2915
   11CHTO   H84 4514   4.616   7.379   0.844 -0.1280 -0.1088 -0.2539
   11CHTO   C44 4515   4.437   7.486   0.834  0.4364 -0.7332  0.4897
   11CHTO   H86 4516   4.382   7.558   0.894  0.2463  1.1355 -1.8619
   11CHTO   O32 4517   4.470   7.562   0.714 -0.2312 -0.1735 -0.1638
   11CHTO   H69 4518   4.398   7.564   0.655  0.1104  2.3169 -0.5536
   11CHTO   C48 4519   4.336   7.363   0.801  0.3261 -0.3589  0.7817
   11CHTO   H90 4520   4.391   7.308   0.725 -1.5370  1.2485 -1.8386
   11CHTO    N9 4521   4.209   7.403   0.726 -0.2352  0.4942  0.0658
   11CHTO   H77 4522   4.156   7.475   0.786  0.0134 -2.0619  3.5061
   11CHTO   H78 4523   4.152   7.313   0.705  1.6479 -0.5206 -0.8432
   11CHTO   C51 4524   4.305   7.279   0.927  0.9995  0.2689 -0.2643
   11CHTO   H93 4525   4.245   7.334   0.999 -0.6525 -3.3922  1.2808
   11CHTO   O30 4526   4.430   7.237   0.980  0.2333 -0.2770  0.0952
   11CHTO   C46 4527   4.508   7.352   1.033 -0.4932  0.4775 -0.3744
   11CHTO   H88 4528   4.440   7.409   1.096 -1.3741  1.8089 -2.4790
   11CHTO   C53 4529   4.628   7.289   1.113  0.5294 -0.5828  0.6097
   11CHTO   O72 4530   4.709   7.210   1.034 -0.1172  0.4256  0.9764
   11CHTO  H199 4531   4.660   7.130   1.031 -0.2615  0.5340  0.0088
   11CHTO   O22 4532   4.231   7.159   0.889  0.0036  0.2692 -0.3689
   11CHTO   C31 4533   4.204   7.057   0.993  0.3815 -0.2402 -0.2026
   11CHTO   H59 4534   4.273   7.078   1.077 -0.2443  1.9974 -0.1995
   11CHTO   C29 4535   4.066   7.062   1.056  0.1059  0.2819  0.8186
   11CHTO   H57 4536   4.006   7.044   0.966  1.4216  0.3155 -0.0814
   11CHTO   O21 4537   4.039   7.197   1.110  0.8307 -0.6419  0.6971
   11CHTO   H37 4538   4.048   7.259   1.041 -0.4760 -1.9840 -0.7201
   11CHTO   C27 4539   4.046   6.947   1.164  0.1331 -0.5672  0.3520
   11CHTO   H55 4540   4.112   6.971   1.248 -0.3380  1.2308  0.2307
   11CHTO    N5 4541   3.909   6.942   1.212  0.1883  0.0225  0.4335
   11CHTO   H43 4542   3.873   7.044   1.201  0.0278  0.1791  2.1857
   11CHTO   H44 4543   3.920   6.933   1.319  0.9959 -1.1527  0.2589
   11CHTO   C25 4544   4.095   6.814   1.112 -0.5390 -0.0450  0.3367
   11CHTO   H53 4545   4.034   6.766   1.034  1.7276  0.0594 -1.5629
   11CHTO   O17 4546   4.226   6.824   1.051 -0.4907 -0.5678  0.7752
   11CHTO   C32 4547   4.241   6.922   0.938  0.4799 -0.2307 -1.0792
   11CHTO   H60 4548   4.171   6.897   0.858 -0.3463  2.0938 -1.1315
   11CHTO   C36 4549   4.378   6.912   0.878 -0.2734 -0.8449 -0.0317
   11CHTO   O25 4550   4.483   6.954   0.965 -0.0763 -0.3852 -0.1871
   11CHTO   H40 4551   4.540   6.881   0.978  1.4958  0.9041  0.3023
   11CHTO   O15 4552   4.105   6.707   1.218  0.3238  0.2596  0.2504
   11CHTO   C19 4553   4.122   6.565   1.233  0.0268  0.3617  0.3311
   11CHTO   H47 4554   4.043   6.526   1.167  1.0429 -0.7071 -0.2598
   11CHTO   C20 4555   4.258   6.509   1.192  0.2270  0.1306  0.0070
   11CHTO   H48 4556   4.339   6.562   1.244  1.0719  0.7841 -1.9343
   11CHTO   O19 4557   4.265   6.533   1.051  0.0814 -0.0114 -0.3651
   11CHTO   H35 4558   4.315   6.464   1.011  0.4014 -0.4625  0.7640
   11CHTO   C21 4559   4.273   6.351   1.220  0.5268  0.4790  0.1886
   11CHTO   H49 4560   4.209   6.299   1.149  3.0891 -0.3449 -1.5842
   11CHTO    N4 4561   4.416   6.314   1.193  0.3088 -0.4360  0.0947
   11CHTO   H41 4562   4.412   6.225   1.132  0.9427 -0.8291  0.6195
   11CHTO   H42 4563   4.462   6.296   1.289  0.3044 -0.0450  0.1704
   11CHTO   C22 4564   4.219   6.308   1.361 -0.9803  0.1914  0.2247
   11CHTO   H50 4565   4.283   6.346   1.441 -0.0761  0.7120 -0.7412
   11CHTO   O14 4566   4.091   6.376   1.368 -0.0758  0.2884  0.0330
   11CHTO   C23 4567   4.088   6.513   1.375 -0.1579  0.6447 -0.2038
   11CHTO   H51 4568   4.166   6.540   1.448 -0.2166 -1.8329  0.8455
   11CHTO   C34 4569   3.952   6.553   1.423 -0.1526  0.4157  0.0779
   11CHTO   O23 4570   3.848   6.505   1.341 -0.1883 -0.2169 -0.2364
   11CHTO   H38 4571   3.794   6.579   1.320 -1.3741 -0.8567  0.4557
   11CHTO   O16 4572   4.195   6.163   1.376 -0.2781 -0.0064  0.2084
   11CHTO   C24 4573   4.051   6.096   1.292 -0.4373  0.0491 -0.7105
   11CHTO   H52 4574   4.013   6.163   1.215 -0.0899 -0.8527 -1.6842
   11CHTO   C26 4575   3.945   6.060   1.397 -0.4304 -0.4245 -0.8612
   11CHTO   H54 4576   3.982   5.982   1.467 -0.0082  1.9931  1.6865
   11CHTO   O20 4577   3.918   6.179   1.468  0.5646 -0.4153  0.3980
   11CHTO   H36 4578   3.900   6.146   1.553 -1.4111 -1.2373 -0.3089
   11CHTO   C30 4579   3.815   6.010   1.330 -0.1512  0.1987  0.6481
   11CHTO   H58 4580   3.785   6.099   1.272 -2.3635 -1.0223 -0.1666
   11CHTO    N6 4581   3.704   5.982   1.425  0.1476 -0.0657 -0.2046
   11CHTO   H45 4582   3.688   6.061   1.497  1.4472  0.4058 -0.4122
   11CHTO   H46 4583   3.613   5.966   1.369  0.3593 -0.0193 -0.5695
   11CHTO   C33 4584   3.850   5.893   1.236  0.1154  1.2703  0.2084
   11CHTO   H61 4585   3.866   5.797   1.287 -0.5853  0.5170 -0.9709
   11CHTO   O18 4586   3.967   5.920   1.155 -0.0758  0.3325  0.3965
   11CHTO   C28 4587   4.088   5.959   1.222  0.1312  0.1806  0.6489
   11CHTO   H56 4588   4.122   5.892   1.301  1.1366 -0.3717 -0.2238
   11CHTO   C35 4589   4.193   5.977   1.112  0.9822  0.1653 -0.1588
   11CHTO   O24 4590   4.235   5.863   1.047  0.0126 -0.4917  0.7769
   11CHTO   H39 4591   4.164   5.806   1.026 -0.1728 -0.3767  1.0817
   11CHTO    O9 4592   3.735   5.861   1.148 -0.1082 -0.2273 -0.5425
   11CHTO   C13 4593   3.700   5.980   1.036  0.3565 -0.1194  0.3850
   11CHTO   H26 4594   3.740   6.081   1.059 -0.1431  0.1091  0.2514
   11CHTO   C11 4595   3.542   5.984   1.019 -0.4871 -1.3645  0.2451
   11CHTO   H24 4596   3.502   6.008   1.118  0.9573  0.8815  0.3295
   11CHTO    O8 4597   3.501   5.851   0.980  0.7015  0.7573 -0.0338
   11CHTO    H3 4598   3.535   5.820   0.899  1.3024  1.1916  0.0482
   11CHTO    C9 4599   3.511   6.096   0.912  0.4359 -0.5497 -1.2427
   11CHTO   H22 4600   3.538   6.190   0.962  2.9256 -1.5294 -0.6447
   11CHTO    N2 4601   3.368   6.117   0.884  0.1521  0.4706 -0.0891
   11CHTO   H10 4602   3.324   6.029   0.841 -3.1955  0.4712  3.1064
   11CHTO   H11 4603   3.358   6.209   0.827 -0.1695 -1.0782 -2.6132
   11CHTO    C7 4604   3.614   6.093   0.788 -0.2890  0.1724  0.2010
   11CHTO   H20 4605   3.685   6.172   0.821 -2.5422  1.7327  1.4773
   11CHTO    O4 4606   3.682   5.965   0.784  0.0996 -0.0709  0.2022
   11CHTO   C14 4607   3.769   5.938   0.898 -0.5005  0.2875 -0.5515
   11CHTO   H27 4608   3.865   5.994   0.891 -0.2570 -0.1980 -1.2136
   11CHTO   C18 4609   3.807   5.784   0.882  0.1061  0.7302 -0.9904
   11CHTO   O13 4610   3.880   5.773   0.756  0.1937  0.2761 -0.0801
   11CHTO    H7 4611   3.955   5.717   0.761  0.6237  0.7962 -0.7939
   11CHTO    O2 4612   3.545   6.135   0.632 -0.1329  0.0865 -0.4377
   11CHTO    C1 4613   3.587   6.263   0.584 -0.2011  0.1217  0.0680
   11CHTO   H14 4614   3.637   6.315   0.668 -0.0753  2.3037 -1.3267
   11CHTO    C2 4615   3.463   6.354   0.537  0.7229 -0.5053 -0.7978
   11CHTO   H15 4616   3.392   6.291   0.481 -0.6954  0.5427 -0.2306
   11CHTO    O6 4617   3.384   6.392   0.655  0.0734  0.3597 -0.2866
   11CHTO    H1 4618   3.297   6.366   0.630 -0.2784 -0.0451  1.2781
   11CHTO    C3 4619   3.503   6.482   0.451 -0.5179  0.0195 -0.1666
   11CHTO   H16 4620   3.542   6.553   0.526 -1.1524 -0.6357  0.7986
   11CHTO    N1 4621   3.396   6.552   0.378 -0.0837 -0.1304 -0.8851
   11CHTO    H8 4622   3.376   6.484   0.296 -4.2046  1.2231 -1.1322
   11CHTO    H9 4623   3.430   6.649   0.343 -0.6914  0.1719 -0.6541
   11CHTO    C4 4624   3.627   6.452   0.347  0.2317  0.7095 -0.2618
   11CHTO   H17 4625   3.588   6.403   0.258  1.5665 -1.5894  0.3845
   11CHTO    O1 4626   3.725   6.371   0.412  0.2865  0.1344  0.5848
   11CHTO    C5 4627   3.686   6.247   0.466  1.1813  0.5713  0.0222
   11CHTO   H18 4628   3.638   6.185   0.391 -0.4299 -0.1881  1.6503
   11CHTO   C16 4629   3.812   6.167   0.513  0.0149 -0.2444  0.1646
   11CHTO   O11 4630   3.888   6.241   0.614 -0.1593  0.2159 -0.5542
   11CHTO    H5 4631   3.844   6.234   0.696  2.0813 -0.3481  0.6459
   11CHTO    O3 4632   3.708   6.563   0.315 -0.2356 -0.3785 -0.1739
   11CHTO    C6 4633   3.773   6.570   0.180 -0.5964  0.2951  0.3279
   11CHTO   H19 4634   3.738   6.485   0.122  0.3569 -1.4350  2.2250
   11CHTO    C8 4635   3.727   6.701   0.111 -0.1398 -0.2846 -0.3852
   11CHTO   H21 4636   3.744   6.782   0.182  1.5764 -0.1344 -0.9572
   11CHTO    O7 4637   3.579   6.701   0.097 -0.0410 -0.2927 -0.5962
   11CHTO    H2 4638   3.549   6.785   0.070  0.9959  0.7468  1.3769
   11CHTO   C12 4639   3.801   6.724  -0.032 -1.0736  0.5831  0.0215
   11CHTO   H25 4640   3.780   6.645  -0.107 -0.5584 -0.0860  0.5601
   11CHTO    N3 4641   3.756   6.858  -0.082 -0.4221 -0.0337 -0.2364
   11CHTO   H12 4642   3.685   6.850  -0.163 -0.4337 -1.0635 -0.1281
   11CHTO   H13 4643   3.713   6.915  -0.001  2.6634  0.1930  1.2933
   11CHTO   C15 4644   3.955   6.717  -0.007 -0.3456  0.1576 -0.1449
   11CHTO   H28 4645   3.988   6.797   0.059  1.8537 -0.7614 -0.0967
   11CHTO   O10 4646   4.041   6.705  -0.131  0.0040 -0.1969 -0.0832
   11CHTO    H4 4647   4.022   6.622  -0.168 -1.8094 -0.0633  0.4971
   11CHTO    O5 4648   3.983   6.585   0.051 -0.3744 -0.4316  0.3648
   11CHTO   C10 4649   3.929   6.561   0.184  0.3994  0.0052  0.3142
   11CHTO   H23 4650   3.969   6.623   0.265  1.4895 -1.4065  0.8765
   11CHTO   C17 4651   3.959   6.415   0.228 -0.3241  0.4428  0.1599
   11CHTO   O12 4652   4.094   6.376   0.222  0.4285 -0.0938  0.5257
   11CHTO    H6 4653   4.132   6.385   0.137 -0.1884 -1.9072  0.0424
   12CHTO  H203 4654   5.488   2.662   2.423  1.0445 -3.5798 -3.2966
   12CHTO   O82 4655   5.407   2.622   2.449  0.1082  0.4189  0.4369
   12CHTO  C123 4656   5.434   2.537   2.558  0.4268  0.7321 -0.0507
   12CHTO  H227 4657   5.451   2.592   2.652  0.3714 -0.3602  0.6092
   12CHTO   O77 4658   5.310   2.457   2.562 -0.2380  0.5054 -0.2180
   12CHTO  C118 4659   5.298   2.355   2.657  0.0224 -0.2784  0.4284
   12CHTO  H222 4660   5.318   2.389   2.760 -1.8700  0.9743  0.4044
   12CHTO  C125 4661   5.149   2.308   2.647 -0.2778  0.0970  0.0139
   12CHTO   O84 4662   5.098   2.201   2.729 -0.2227 -0.0911 -0.4913
   12CHTO  H205 4663   5.033   2.229   2.790  0.7659 -1.4058  1.2248
   12CHTO  C114 4664   5.408   2.257   2.627 -0.7709 -0.1666  0.0180
   12CHTO  H218 4665   5.389   2.214   2.529 -0.9939 -2.3472  0.9883
   12CHTO  C116 4666   5.551   2.323   2.629 -0.4380 -0.2973 -0.1746
   12CHTO  H220 4667   5.580   2.355   2.732  2.6418  2.7072 -1.8828
   12CHTO   O79 4668   5.642   2.217   2.595 -0.9422  0.0583 -0.1543
   12CHTO  H201 4669   5.613   2.171   2.519 -0.1910 -0.2784 -0.2380
   12CHTO  C120 4670   5.556   2.444   2.534 -0.1347  0.5764  0.0072
   12CHTO  H224 4671   5.541   2.402   2.432 -1.3263  1.4226 -0.1690
   12CHTO   N21 4672   5.689   2.514   2.534  1.0737  0.3474  0.2507
   12CHTO  H211 4673   5.768   2.466   2.480  1.0143  0.9612 -0.3897
   12CHTO  H212 4674   5.680   2.614   2.493  1.5459  0.7110  1.0090
   12CHTO   O75 4675   5.397   2.155   2.736 -0.6482 -0.0124  0.1321
   12CHTO  C112 4676   5.366   1.993   2.679  0.2188  0.3503 -0.5452
   12CHTO  H216 4677   5.442   1.954   2.609  0.2291  0.2532 -0.4794
   12CHTO   O73 4678   5.233   1.989   2.619  0.2437  0.0020  0.5377
   12CHTO  C113 4679   5.197   1.858   2.568 -0.1769  0.0848 -0.1185
   12CHTO  H217 4680   5.272   1.841   2.488 -0.8902  1.4376 -1.1043
   12CHTO  C124 4681   5.060   1.866   2.497  0.5352 -0.2701  0.1844
   12CHTO   O83 4682   4.962   1.922   2.595  0.2611 -0.5220  0.1159
   12CHTO  H204 4683   4.944   1.874   2.674 -0.6953 -0.5667 -0.1162
   12CHTO  C109 4684   5.209   1.749   2.678 -0.0881  0.8244 -0.0226
   12CHTO  H213 4685   5.124   1.759   2.748 -1.0956 -2.2665 -0.7400
   12CHTO  C110 4686   5.343   1.743   2.753  0.3973  0.6087  0.0275
   12CHTO  H214 4687   5.421   1.702   2.689 -0.7281 -1.3080 -0.1690
   12CHTO   O78 4688   5.332   1.651   2.867 -0.1196  0.4184 -0.5676
   12CHTO  H200 4689   5.248   1.658   2.909 -0.9311 -3.0395 -1.4417
   12CHTO  C111 4690   5.373   1.885   2.801  0.1665  0.1788  0.2365
   12CHTO  H215 4691   5.299   1.913   2.877  1.2202 -0.3111  1.4703
   12CHTO   N19 4692   5.506   1.898   2.866 -0.0107  0.0195  0.0051
   12CHTO  H207 4693   5.572   1.968   2.815  0.7015 -0.7319 -0.1074
   12CHTO  H208 4694   5.490   1.916   2.971 -1.5750  1.0236 -0.3796
   12CHTO   O74 4695   5.194   1.620   2.606 -0.4368  0.3998 -0.4364
   12CHTO  C115 4696   5.073   1.535   2.688 -0.4568  0.4278  0.7212
   12CHTO  H219 4697   5.055   1.578   2.786 -1.0319  0.1916  0.7176
   12CHTO   O76 4698   4.937   1.551   2.621 -0.1107 -0.2392 -0.2573
   12CHTO  C122 4699   4.933   1.468   2.495 -0.2977 -0.1270 -0.5712
   12CHTO  H226 4700   5.016   1.500   2.432 -1.5678  1.4048 -1.5130
   12CHTO  C126 4701   4.804   1.528   2.421 -0.0483  0.3138  0.4454
   12CHTO   O85 4702   4.781   1.457   2.297 -0.8228 -0.2303 -0.4731
   12CHTO  H206 4703   4.828   1.502   2.229 -1.1212  2.2640  0.8752
   12CHTO  C121 4704   4.915   1.319   2.528  0.5572 -0.0885 -0.0817
   12CHTO  H225 4705   4.809   1.289   2.530  1.0288 -1.7785  0.8406
   12CHTO   O81 4706   4.982   1.239   2.425 -0.2197  0.1623  0.4367
   12CHTO  H202 4707   4.951   1.152   2.410  0.8518  0.0517 -1.2509
   12CHTO  C119 4708   4.985   1.281   2.665 -0.0622 -0.0782  0.2793
   12CHTO  H223 4709   4.919   1.303   2.748 -1.4430  0.2066 -0.8717
   12CHTO  C117 4710   5.111   1.380   2.689 -0.1461 -0.1079 -0.0634
   12CHTO  H221 4711   5.191   1.373   2.615 -0.0153  0.9669 -0.0323
   12CHTO   N20 4712   5.170   1.355   2.824 -0.3615 -0.4641  0.7868
   12CHTO  H209 4713   5.276   1.376   2.814 -0.6130  1.3697  1.7639
   12CHTO  H210 4714   5.116   1.405   2.903  0.5740  1.2312  0.3867
   12CHTO   O80 4715   4.998   1.128   2.682 -0.2695 -0.2021 -0.4092
   12CHTO  C103 4716   4.871   1.044   2.748 -0.7442  0.6980  0.3949
   12CHTO  H190 4717   4.808   1.114   2.802  0.1403  2.5086 -0.8848
   12CHTO  C101 4718   4.791   0.946   2.647 -0.1221 -0.3042 -0.4011
   12CHTO  H188 4719   4.866   0.876   2.611  3.1666  1.8861  1.9778
   12CHTO   O68 4720   4.749   1.051   2.532  0.4007  0.5079  0.6846
   12CHTO  H168 4721   4.793   1.028   2.452  0.1190 -0.3465  0.7747
   12CHTO   C99 4722   4.672   0.863   2.722 -0.1172  0.5805  0.6595
   12CHTO  H186 4723   4.609   0.940   2.771 -2.6055  0.0067 -1.5454
   12CHTO   N17 4724   4.593   0.773   2.635  0.0071  0.2153  0.5737
   12CHTO  H174 4725   4.573   0.827   2.543  1.4706 -1.5207 -0.8029
   12CHTO  H175 4726   4.502   0.743   2.684 -0.7408 -2.7580 -2.4645
   12CHTO   C97 4727   4.739   0.783   2.837  0.4184 -0.1839  0.2920
   12CHTO  H184 4728   4.802   0.701   2.799 -1.2756 -0.7024 -1.4813
   12CHTO   O64 4729   4.812   0.879   2.919  0.0230 -0.0680 -1.1342
   12CHTO  C104 4730   4.924   0.944   2.859  0.2290  0.0212 -0.9052
   12CHTO  H191 4731   5.000   0.880   2.813  1.9630  0.3633  1.3611
   12CHTO  C108 4732   4.996   1.012   2.972 -0.0288 -0.7530 -0.1101
   12CHTO   O71 4733   5.138   1.024   2.945  0.2842 -0.0815  0.5856
   12CHTO  H171 4734   5.180   0.943   2.965 -1.2815 -1.9423 -3.0348
   12CHTO   O62 4735   4.654   0.745   2.947 -0.4738  0.1146  0.2577
   12CHTO   C91 4736   4.602   0.612   2.950 -0.1582 -0.2748 -0.2190
   12CHTO  H178 4737   4.616   0.565   2.852  0.5609 -2.5614  0.9525
   12CHTO   C92 4738   4.449   0.622   2.986  0.2616  0.3136 -0.2281
   12CHTO  H179 4739   4.435   0.705   3.057  2.7102  1.2019 -0.7195
   12CHTO   O66 4740   4.376   0.669   2.867  0.7598 -0.0309  0.1115
   12CHTO  H166 4741   4.394   0.612   2.795 -1.7889 -0.5321 -0.1717
   12CHTO   C93 4742   4.383   0.483   3.037  0.2017 -0.0717  0.5353
   12CHTO  H180 4743   4.403   0.411   2.956  3.6660 -1.3085  2.3888
   12CHTO   N16 4744   4.235   0.494   3.071 -0.2957 -0.2949  0.6358
   12CHTO  H172 4745   4.211   0.583   3.127  0.4536 -0.4592  1.2258
   12CHTO  H173 4746   4.207   0.406   3.127 -0.3078 -0.6490  0.0743
   12CHTO   C94 4747   4.469   0.435   3.153  0.1926  0.1376 -0.5052
   12CHTO  H181 4748   4.476   0.509   3.232 -0.7864 -0.6937  0.3647
   12CHTO   O61 4749   4.605   0.409   3.101 -0.0593  0.2559 -0.4387
   12CHTO   C95 4750   4.682   0.521   3.047 -0.0149 -0.4913  0.1929
   12CHTO  H182 4751   4.720   0.577   3.133  1.9316 -0.3591 -0.7290
   12CHTO  C106 4752   4.808   0.449   2.988 -1.3017  0.4070  0.4010
   12CHTO   O69 4753   4.917   0.540   2.973 -0.0829 -0.0596  0.1859
   12CHTO  H169 4754   4.892   0.613   2.921 -0.3747 -0.3474 -0.0835
   12CHTO   O63 4755   4.415   0.297   3.213 -0.2673  0.0126  0.3961
   12CHTO   C96 4756   4.492   0.268   3.362  0.4654 -0.2656 -0.6553
   12CHTO  H183 4757   4.576   0.331   3.391  0.7615 -0.2415 -1.5647
   12CHTO   C98 4758   4.541   0.117   3.371  0.5826  0.5581 -0.3753
   12CHTO  H185 4759   4.454   0.051   3.361  0.0116  1.2777 -0.1584
   12CHTO   O67 4760   4.622   0.096   3.254  0.2913 -0.1478 -0.1194
   12CHTO  H167 4761   4.557   0.094   3.185 -0.4111  0.0729  0.5336
   12CHTO  C102 4762   4.615   0.099   3.512  0.1296  0.0641  0.4009
   12CHTO  H189 4763   4.687   0.182   3.518 -2.5957  2.5097  0.5560
   12CHTO   N18 4764   4.682  -0.035   3.536  0.0202 -0.0020 -0.1272
   12CHTO  H176 4765   4.606  -0.111   3.528  0.1197 -0.0241 -0.9428
   12CHTO  H177 4766   4.771  -0.046   3.476  0.4930  0.9153  0.3916
   12CHTO  C105 4767   4.504   0.135   3.615 -0.5142  0.1955 -0.6389
   12CHTO  H192 4768   4.424   0.062   3.607 -0.1124 -0.3407  0.1781
   12CHTO   O65 4769   4.447   0.266   3.603 -0.1474 -0.4195 -0.1145
   12CHTO  C100 4770   4.382   0.281   3.481 -0.5798 -0.6697 -0.3327
   12CHTO  H187 4771   4.316   0.193   3.474 -0.4978 -0.7640  0.0648
   12CHTO  C107 4772   4.306   0.412   3.475 -0.7479 -0.1358  0.4140
   12CHTO   O70 4773   4.392   0.526   3.448 -0.8202  0.3486  0.4996
   12CHTO  H170 4774   4.381   0.561   3.362  1.2609 -1.3965 -0.5422
   12CHTO   O57 4775   4.582   0.122   3.767  0.0824  0.4634  0.0413
   12CHTO   C85 4776   4.646   0.225   3.851 -0.8126 -0.4284 -0.5347
   12CHTO  H157 4777   4.559   0.293   3.867 -1.2512 -0.7882 -1.3454
   12CHTO   C83 4778   4.764   0.296   3.775 -0.5792  0.2366  0.4632
   12CHTO  H155 4779   4.736   0.341   3.681 -2.7998  1.0770  1.4984
   12CHTO   O56 4780   4.862   0.197   3.729  0.3137 -0.2991  0.0043
   12CHTO  H135 4781   4.815   0.131   3.681  1.2454 -1.8763  1.2188
   12CHTO   C81 4782   4.831   0.400   3.865 -0.3081  0.1525  0.5974
   12CHTO  H153 4783   4.754   0.473   3.890 -0.0863  0.1527  1.2982
   12CHTO   N14 4784   4.932   0.482   3.805 -0.2712  0.0049  0.4584
   12CHTO  H141 4785   4.882   0.550   3.739  0.1795  1.6552  1.7548
   12CHTO  H142 4786   4.998   0.422   3.746 -1.3446 -2.4330  1.6656
   12CHTO   C79 4787   4.883   0.344   4.005  0.2991 -0.0539  0.1273
   12CHTO  H151 4788   4.895   0.431   4.070  3.6966  0.0740 -0.5815
   12CHTO   O52 4789   4.778   0.270   4.078 -0.0546 -0.2228  0.1874
   12CHTO   C86 4790   4.710   0.170   3.986 -0.3972  0.3598 -0.0700
   12CHTO  H158 4791   4.795   0.106   3.953 -0.5455  0.9984 -1.7033
   12CHTO   C90 4792   4.614   0.083   4.071  0.0016 -0.3440 -0.1770
   12CHTO   O60 4793   4.691  -0.011   4.146 -0.0649 -0.2279  0.2395
   12CHTO  H138 4794   4.771   0.029   4.171  0.4193 -0.2484 -1.2385
   12CHTO   O50 4795   5.003   0.262   3.993 -0.5153  0.1398 -0.3106
   12CHTO   C73 4796   5.109   0.205   4.070  0.2800  0.4442 -0.3883
   12CHTO  H145 4797   5.067   0.160   4.162  0.1635  0.1377 -0.5917
   12CHTO   C74 4798   5.210   0.308   4.118 -0.0525 -0.5583  0.0763
   12CHTO  H146 4799   5.158   0.389   4.172  0.9421  0.8387 -1.0279
   12CHTO   O54 4800   5.305   0.240   4.204 -0.7455 -0.2369 -0.1083
   12CHTO  H133 4801   5.368   0.304   4.231 -1.7030 -0.0563  1.7893
   12CHTO   C75 4802   5.278   0.368   3.987  0.4990  0.2649 -0.8325
   12CHTO  H147 4803   5.197   0.398   3.918  1.9664 -0.8034 -3.0937
   12CHTO   N13 4804   5.361   0.490   4.003  0.4763  0.1003 -0.0135
   12CHTO  H139 4805   5.395   0.518   3.904 -0.5120 -2.3603 -1.0903
   12CHTO  H140 4806   5.302   0.568   4.049  0.1133  0.4420 -1.0425
   12CHTO   C76 4807   5.357   0.253   3.909 -0.2333 -0.0108  0.0254
   12CHTO  H148 4808   5.436   0.216   3.974 -0.8628 -1.6842 -0.1494
   12CHTO   O49 4809   5.257   0.148   3.881 -0.1665  0.1388  0.3644
   12CHTO   C77 4810   5.188   0.091   3.990 -0.4937  0.0041 -1.2779
   12CHTO  H149 4811   5.260   0.048   4.059  3.1777  2.6473 -3.2185
   12CHTO   C88 4812   5.099  -0.026   3.930  0.1791 -0.4223  0.4163
   12CHTO   O58 4813   5.185  -0.121   3.857  0.0598 -0.0570 -0.3955
   12CHTO  H136 4814   5.137  -0.161   3.787 -0.9613 -0.3051  0.4243
   12CHTO   O51 4815   5.407   0.308   3.772 -0.1930 -0.2377 -0.3660
   12CHTO   C78 4816   5.516   0.225   3.716  0.4659 -0.5627 -0.0099
   12CHTO  H150 4817   5.510   0.127   3.767 -0.9365 -0.4015  0.1717
   12CHTO   C80 4818   5.649   0.292   3.761  0.3690 -0.5205 -0.0942
   12CHTO  H152 4819   5.651   0.397   3.727  2.2611 -0.4109  0.3056
   12CHTO   O55 4820   5.653   0.298   3.903  0.1152  0.0255  0.3263
   12CHTO  H134 4821   5.684   0.216   3.936 -0.4678 -1.7572 -3.2727
   12CHTO   C84 4822   5.773   0.221   3.701  0.3345 -0.8435 -0.5932
   12CHTO  H156 4823   5.772   0.120   3.743  2.8952 -1.2254 -1.3526
   12CHTO   N15 4824   5.903   0.284   3.738  0.7140  0.1433 -0.1668
   12CHTO  H143 4825   5.935   0.244   3.832  1.8787  0.3919 -0.4476
   12CHTO  H144 4826   5.978   0.262   3.665  0.5521 -1.6407  0.1682
   12CHTO   C87 4827   5.760   0.203   3.544 -0.2661  0.4373 -0.4589
   12CHTO  H159 4828   5.766   0.303   3.500 -1.2018  0.1429 -1.2825
   12CHTO   O53 4829   5.618   0.141   3.514  0.2262 -0.4941 -0.3726
   12CHTO   C82 4830   5.512   0.219   3.562  0.4801 -0.4326  0.5560
   12CHTO  H154 4831   5.519   0.316   3.513 -2.2422 -0.4765  0.0080
   12CHTO   C89 4832   5.382   0.157   3.513  0.2070 -0.0038 -0.7839
   12CHTO   O59 4833   5.253   0.209   3.551  0.2998 -0.1342  0.3314
   12CHTO  H137 4834   5.271   0.235   3.640 -2.0677  0.8116  0.5474
   12CHTO   O45 4835   5.869   0.110   3.477 -0.1137 -1.0983 -0.2566
   12CHTO   C67 4836   5.915   0.136   3.341 -0.6156 -0.4568  0.0635
   12CHTO  H124 4837   6.002   0.072   3.330 -1.4781 -1.7103  0.3480
   12CHTO   C65 4838   5.805   0.096   3.238 -0.2012  0.6349  0.4786
   12CHTO  H122 4839   5.706   0.115   3.277  0.2097  3.8312  0.0531
   12CHTO   O44 4840   5.823  -0.050   3.228 -0.4923  0.0591 -0.1925
   12CHTO  H102 4841   5.816  -0.095   3.309 -1.2198  1.3221  0.4659
   12CHTO   C63 4842   5.802   0.187   3.106  0.8202  0.1219  0.2698
   12CHTO  H120 4843   5.763   0.286   3.131  0.0500  0.5691 -2.5812
   12CHTO   N11 4844   5.704   0.126   3.007  0.3789  0.7362 -0.0201
   12CHTO  H108 4845   5.609   0.175   3.005  0.7928  1.6587  1.8498
   12CHTO  H109 4846   5.683   0.023   3.031 -0.1135  0.9648  0.5418
   12CHTO   C61 4847   5.945   0.212   3.062 -0.0857 -0.9999  0.2772
   12CHTO  H118 4848   5.938   0.278   2.974  0.5478 -0.5986  0.5212
   12CHTO   O40 4849   6.014   0.298   3.164 -0.0635  0.3862  0.3555
   12CHTO   C68 4850   5.963   0.286   3.305 -0.2170 -0.3828 -0.2292
   12CHTO  H125 4851   5.877   0.354   3.325  2.4166  3.2879 -0.8977
   12CHTO   C72 4852   6.075   0.338   3.398 -0.0971  0.2913  0.3878
   12CHTO   O48 4853   6.139   0.462   3.356  0.1055  0.1391 -0.2342
   12CHTO  H105 4854   6.215   0.433   3.310 -0.4689 -0.6540 -0.6801
   12CHTO   O38 4855   6.012   0.084   3.027  0.0122 -0.3933  0.2972
   12CHTO   C55 4856   6.158   0.085   3.037 -0.0159  0.3099 -0.2029
   12CHTO  H112 4857   6.197   0.145   3.120  3.1833 -2.0786  0.1289
   12CHTO   C56 4858   6.225   0.123   2.900 -0.3652  0.0921 -0.2499
   12CHTO  H113 4859   6.190   0.048   2.828  0.7020 -0.9935  0.3378
   12CHTO   O42 4860   6.177   0.253   2.853  0.0231  0.3562 -0.1895
   12CHTO  H100 4861   6.084   0.264   2.846  0.0902  1.1342  0.1709
   12CHTO   C57 4862   6.378   0.122   2.913 -0.0827 -0.2444  0.0453
   12CHTO  H114 4863   6.395   0.209   2.976 -1.0788  0.4192 -0.6030
   12CHTO   N10 4864   6.457   0.151   2.789  0.5182  0.3370  0.6459
   12CHTO  H106 4865   6.410   0.229   2.731  0.0878  0.4033  1.0803
   12CHTO  H107 4866   6.561   0.176   2.800  0.6518 -0.2193  0.6371
   12CHTO   C58 4867   6.426  -0.005   2.986 -0.2592 -0.6355 -0.6382
   12CHTO  H115 4868   6.430  -0.085   2.910  0.5227  2.2668 -3.7637
   12CHTO   O37 4869   6.348  -0.031   3.100 -0.5910  0.5498 -0.4811
   12CHTO   C59 4870   6.209  -0.057   3.069 -0.4925  0.6968 -0.2715
   12CHTO  H116 4871   6.178  -0.126   2.990 -0.6374 -0.3353  0.6592
   12CHTO   C70 4872   6.130  -0.095   3.193  0.3671  0.7848  0.2729
   12CHTO   O46 4873   6.168  -0.219   3.259  0.3839 -0.0883  0.6787
   12CHTO  H103 4874   6.138  -0.224   3.348 -0.8139 -0.5053  0.2657
   12CHTO   O39 4875   6.577   0.034   3.057  0.5779 -0.4310  0.4084
   12CHTO   C60 4876   6.663  -0.081   3.067  0.7742 -1.5175 -0.2753
   12CHTO  H117 4877   6.598  -0.163   3.099 -0.9615 -2.1781 -5.0534
   12CHTO   C62 4878   6.738  -0.126   2.942 -0.6677 -0.5677  0.0416
   12CHTO  H119 4879   6.664  -0.154   2.865 -0.3097  0.8773 -0.8662
   12CHTO   O43 4880   6.822  -0.014   2.894 -0.6181 -0.1300 -0.2896
   12CHTO  H101 4881   6.832  -0.032   2.802 -0.1862  0.1945 -0.3082
   12CHTO   C66 4882   6.819  -0.258   2.965 -0.5053 -0.2457 -0.1213
   12CHTO  H123 4883   6.744  -0.333   2.988 -1.3635  1.0563  1.3633
   12CHTO   N12 4884   6.882  -0.302   2.834 -0.5715 -0.0839 -0.8641
   12CHTO  H110 4885   6.812  -0.320   2.754 -0.4851 -2.2322 -0.4712
   12CHTO  H111 4886   6.949  -0.383   2.858 -0.2326  0.9860  2.1024
   12CHTO   C69 4887   6.925  -0.235   3.073  0.3913 -0.5784  0.0131
   12CHTO  H126 4888   7.008  -0.175   3.031  0.0274 -0.3638 -0.4069
   12CHTO   O41 4889   6.852  -0.148   3.206 -0.3822 -0.1589  0.2569
   12CHTO   C64 4890   6.761  -0.050   3.190  0.2096  0.7999 -0.2332
   12CHTO  H121 4891   6.814   0.036   3.146 -0.9876  1.1200 -1.0665
   12CHTO   C71 4892   6.697  -0.024   3.327 -0.2291  0.4373  0.3360
   12CHTO   O47 4893   6.787   0.059   3.386 -0.3538 -0.7988  0.1178
   12CHTO  H104 4894   6.870   0.020   3.409  0.6400  1.1212 -0.0823
   12CHTO   O34 4895   6.978  -0.358   3.107  0.0803  0.1733  0.3736
   12CHTO   C49 4896   7.031  -0.446   3.173  0.2304 -0.1945 -0.2235
   12CHTO   H91 4897   7.137  -0.421   3.177 -0.0265  1.0259 -0.9237
   12CHTO   C47 4898   7.009  -0.583   3.108 -0.3242 -0.4506  0.3585
   12CHTO   H89 4899   7.088  -0.643   3.156 -0.4068 -0.6749  0.2166
   12CHTO   O33 4900   7.049  -0.568   2.968 -0.5822 -0.0173  0.1089
   12CHTO   H70 4901   7.121  -0.512   2.945  2.6560 -4.9132 -2.7548
   12CHTO   C45 4902   6.853  -0.630   3.114 -0.6413  0.4312 -0.4760
   12CHTO   H87 4903   6.815  -0.602   3.014  1.5885  0.1874 -1.4280
   12CHTO    N8 4904   6.855  -0.780   3.127  0.5231  0.1184  0.8099
   12CHTO   H75 4905   6.941  -0.827   3.172  1.8958 -0.7776 -2.5565
   12CHTO   H76 4906   6.765  -0.813   3.176 -1.6537  0.4158 -2.7614
   12CHTO   C43 4907   6.767  -0.547   3.218 -0.1086  0.2106 -0.1706
   12CHTO   H85 4908   6.744  -0.454   3.167  0.7719  0.5614  0.0616
   12CHTO   O29 4909   6.854  -0.531   3.339 -0.5759  0.0854  1.0640
   12CHTO   C50 4910   6.977  -0.460   3.320 -0.2041  0.2051 -0.5479
   12CHTO   H92 4911   6.971  -0.357   3.356  2.4169  1.0317 -2.3212
   12CHTO   C54 4912   7.087  -0.531   3.405 -0.2518 -0.4814 -0.2939
   12CHTO   O36 4913   7.064  -0.532   3.548 -0.0072 -0.0971  0.2343
   12CHTO   H72 4914   7.102  -0.450   3.571  0.5933 -0.3010 -0.0251
   12CHTO   O27 4915   6.641  -0.607   3.243 -0.1014  0.3098 -0.0348
   12CHTO   C37 4916   6.507  -0.639   3.274  0.1216 -0.2476  1.2302
   12CHTO   H79 4917   6.452  -0.720   3.225  0.0787  0.6387 -0.2140
   12CHTO   C38 4918   6.502  -0.666   3.429  0.3533  0.6423 -0.6244
   12CHTO   H80 4919   6.530  -0.571   3.478 -0.1962  1.8161 -2.5208
   12CHTO   O31 4920   6.589  -0.771   3.464  0.3730  0.4041  0.2766
   12CHTO   H68 4921   6.678  -0.741   3.461  0.7126 -0.5275  0.6345
   12CHTO   C39 4922   6.354  -0.702   3.477 -0.4897 -0.1597  0.0182
   12CHTO   H81 4923   6.333  -0.796   3.426 -3.3327 -0.0895  0.9894
   12CHTO    N7 4924   6.340  -0.728   3.626 -0.6413 -0.2084 -0.0723
   12CHTO   H73 4925   6.390  -0.814   3.666  0.5222  1.6494  2.5964
   12CHTO   H74 4926   6.235  -0.720   3.651 -0.9444 -2.8906 -0.3497
   12CHTO   C40 4927   6.252  -0.587   3.427  0.5425 -0.9505  0.7924
   12CHTO   H82 4928   6.254  -0.507   3.501  0.6118 -2.7905  2.8383
   12CHTO   O26 4929   6.288  -0.543   3.289 -0.4187  0.3397 -0.2197
   12CHTO   C41 4930   6.423  -0.513   3.246  0.1757  0.7968  0.1472
   12CHTO   H83 4931   6.476  -0.433   3.298  1.5484  1.0369 -1.5631
   12CHTO   C52 4932   6.424  -0.476   3.100  0.4956 -0.2561  0.4009
   12CHTO   O35 4933   6.415  -0.330   3.074  0.6835 -0.2015 -0.3168
   12CHTO   H71 4934   6.506  -0.312   3.062  0.5368  0.8936  0.2442
   12CHTO   O28 4935   6.114  -0.634   3.409  0.4896 -0.3586  0.1133
   12CHTO   C42 4936   6.004  -0.545   3.371 -0.1767  0.5152 -1.4047
   12CHTO   H84 4937   6.044  -0.487   3.288  0.7296  0.2598 -1.1589
   12CHTO   C44 4938   5.955  -0.433   3.476 -0.4935 -0.3723 -0.0913
   12CHTO   H86 4939   5.915  -0.486   3.563  1.7487 -0.9983  0.5863
   12CHTO   O32 4940   6.071  -0.361   3.524  0.2658 -0.3423  1.0499
   12CHTO   H69 4941   6.051  -0.285   3.576  1.5627  1.1498 -0.5767
   12CHTO   C48 4942   5.849  -0.335   3.423 -0.1955  0.1967 -0.2433
   12CHTO   H90 4943   5.900  -0.271   3.352  0.3892  1.4744  1.2962
   12CHTO    N9 4944   5.792  -0.246   3.536  0.0990 -0.4603 -0.2997
   12CHTO   H77 4945   5.756  -0.305   3.619  3.1894 -0.6921  0.9430
   12CHTO   H78 4946   5.873  -0.180   3.564 -0.1198  0.7738 -2.4527
   12CHTO   C51 4947   5.732  -0.405   3.351 -0.0136 -0.0390  0.7831
   12CHTO   H93 4948   5.674  -0.459   3.426  0.3245 -1.4419  0.0627
   12CHTO   O30 4949   5.782  -0.501   3.246 -0.0127 -0.4608  0.1959
   12CHTO   C46 4950   5.879  -0.623   3.316 -0.5087  0.0228 -0.7380
   12CHTO   H88 4951   5.835  -0.685   3.393 -0.0281 -0.1769 -0.6250
   12CHTO   C53 4952   5.922  -0.723   3.201  0.6924 -0.5656  0.3605
   12CHTO   O72 4953   6.002  -0.824   3.256  0.2416  0.4393 -0.6815
   12CHTO  H199 4954   6.025  -0.809   3.346 -2.0562 -1.8373  0.3365
   12CHTO   O22 4955   5.657  -0.309   3.284 -0.6586 -0.7931 -0.5149
   12CHTO   C31 4956   5.513  -0.316   3.263 -0.5538  0.2572 -0.5610
   12CHTO   H59 4957   5.487  -0.422   3.244 -1.7799  0.4402  0.0598
   12CHTO   C29 4958   5.432  -0.276   3.391 -0.7641 -0.1707 -0.2470
   12CHTO   H57 4959   5.451  -0.172   3.423 -1.3048  0.0406 -0.6116
   12CHTO   O21 4960   5.475  -0.356   3.503  0.3256  0.5754  0.1667
   12CHTO   H37 4961   5.567  -0.368   3.511  0.2664 -1.6980 -2.0154
   12CHTO   C27 4962   5.278  -0.282   3.351  0.2947  0.2438 -0.7557
   12CHTO   H55 4963   5.249  -0.386   3.332 -3.4537  1.0597 -0.0511
   12CHTO    N5 4964   5.194  -0.243   3.468  0.0689 -0.1208  0.0877
   12CHTO   H43 4965   5.090  -0.255   3.444  0.2536 -1.4419 -0.1093
   12CHTO   H44 4966   5.213  -0.318   3.543  0.1989  1.4286  1.6363
   12CHTO   C25 4967   5.241  -0.203   3.221 -0.1635  0.4106  0.0021
   12CHTO   H53 4968   5.254  -0.096   3.241  2.9434  0.2664 -1.0177
   12CHTO   O17 4969   5.329  -0.239   3.109  0.7330  0.2595  0.0371
   12CHTO   C32 4970   5.474  -0.230   3.136  1.1117  0.1133 -0.3361
   12CHTO   H60 4971   5.497  -0.124   3.150  0.7029  0.4352 -1.9078
   12CHTO   C36 4972   5.551  -0.255   3.000 -0.3518  0.0714 -0.2164
   12CHTO   O25 4973   5.499  -0.173   2.892 -0.0389 -0.2657 -0.1649
   12CHTO   H40 4974   5.554  -0.155   2.818  0.1552 -0.7391 -0.1370
   12CHTO   O15 4975   5.091  -0.232   3.170 -0.3228 -0.3664 -0.5448
   12CHTO   C19 4976   5.008  -0.140   3.092  0.2128 -0.7538 -0.5918
   12CHTO   H47 4977   5.015  -0.043   3.143  0.5432 -0.9202 -0.3225
   12CHTO   C20 4978   5.059  -0.123   2.939 -0.1338  0.4078 -0.3805
   12CHTO   H48 4979   5.060  -0.219   2.887 -0.2781 -0.0654  0.4778
   12CHTO   O19 4980   5.183  -0.054   2.940  0.0043 -0.7283  0.0204
   12CHTO   H35 4981   5.205  -0.023   2.854 -1.2746 -1.1761 -0.4825
   12CHTO   C21 4982   4.953  -0.028   2.866  0.6352  0.8297  0.2892
   12CHTO   H49 4983   4.953   0.067   2.919  2.7338  0.8930  0.2053
   12CHTO    N4 4984   4.978   0.005   2.724  0.0547  0.0910 -0.0811
   12CHTO   H41 4985   4.983  -0.084   2.664 -0.6547 -0.4430  0.6482
   12CHTO   H42 4986   4.897   0.065   2.686 -1.3175 -2.0225 -0.5490
   12CHTO   C22 4987   4.806  -0.079   2.884 -0.1968  0.0515 -0.7845
   12CHTO   H50 4988   4.798  -0.178   2.840  0.7547 -1.1110  1.5338
   12CHTO   O14 4989   4.776  -0.087   3.025  0.3219  0.2995  0.2414
   12CHTO   C23 4990   4.859  -0.177   3.096  0.5086 -0.0954  0.3414
   12CHTO   H51 4991   4.833  -0.277   3.058 -0.9786  1.0555 -1.7246
   12CHTO   C34 4992   4.815  -0.187   3.247  0.3734 -0.6435 -0.0768
   12CHTO   O23 4993   4.671  -0.200   3.261  0.1751 -0.1435 -0.0010
   12CHTO   H38 4994   4.634  -0.134   3.316 -0.6126 -0.3149 -0.3212
   12CHTO   O16 4995   4.706   0.012   2.827  0.2001  0.1093 -0.4858
   12CHTO   C24 4996   4.547  -0.040   2.813  0.4623  0.4278 -0.6424
   12CHTO   H52 4997   4.495   0.020   2.738 -0.6462 -0.0713 -0.2967
   12CHTO   C26 4998   4.473  -0.028   2.952 -0.1031  0.5247 -0.5392
   12CHTO   H54 4999   4.528  -0.090   3.026  0.6082 -0.3443 -1.7810
   12CHTO   O20 5000   4.478   0.115   2.987  0.5329  0.1034  0.7228
   12CHTO   H36 5001   4.558   0.142   3.028  0.8966  2.6701 -1.4891
   12CHTO   C30 5002   4.328  -0.076   2.956  0.0686 -0.0555  0.2986
   12CHTO   H58 5003   4.263  -0.007   2.899  1.5796  0.5580 -0.7188
   12CHTO    N6 5004   4.270  -0.062   3.095  0.6635  0.1636 -0.3785
   12CHTO   H45 5005   4.175  -0.112   3.089  0.2419  0.8493  0.5820
   12CHTO   H46 5006   4.249   0.039   3.126  0.6457  1.0476 -3.1575
   12CHTO   C33 5007   4.318  -0.221   2.896 -0.3254  0.3220  0.5432
   12CHTO   H61 5008   4.360  -0.297   2.964  1.4967  0.5107 -0.3389
   12CHTO   O18 5009   4.394  -0.228   2.772  0.6365 -0.2867 -0.1696
   12CHTO   C28 5010   4.527  -0.183   2.771 -0.0637  0.0011 -0.2154
   12CHTO   H56 5011   4.584  -0.250   2.836  1.1936  0.0808 -1.2150
   12CHTO   C35 5012   4.578  -0.211   2.624  0.2490 -0.1676  0.8969
   12CHTO   O24 5013   4.707  -0.162   2.585 -0.3286  0.4069 -0.5470
   12CHTO   H39 5014   4.778  -0.190   2.639  0.3180  1.7916 -0.6463
   12CHTO    O9 5015   4.178  -0.252   2.878  0.0323  0.4745 -0.3617
   12CHTO   C13 5016   4.160  -0.399   2.830 -0.0430 -0.1938  0.7578
   12CHTO   H26 5017   4.262  -0.442   2.821 -0.9617 -2.1143 -0.7668
   12CHTO   C11 5018   4.075  -0.427   2.702  0.8044  0.4336 -0.1459
   12CHTO   H24 5019   4.123  -0.395   2.609  0.4852 -1.5721 -1.0293
   12CHTO    O8 5020   3.943  -0.366   2.719 -0.7430 -0.0590  0.5345
   12CHTO    H3 5021   3.876  -0.424   2.690 -1.0608  0.7986 -0.4903
   12CHTO    C9 5022   4.048  -0.580   2.679  0.1989 -0.4374  0.2392
   12CHTO   H22 5023   4.142  -0.630   2.651 -0.5953 -2.1945  0.6060
   12CHTO    N2 5024   3.967  -0.621   2.560 -0.3688 -0.0191  0.2654
   12CHTO   H10 5025   3.947  -0.727   2.564  2.5601 -0.6928 -1.5314
   12CHTO   H11 5026   4.035  -0.610   2.477 -1.2305 -1.9866 -0.7455
   12CHTO    C7 5027   3.994  -0.644   2.812 -0.1515 -0.0385  0.6432
   12CHTO   H20 5028   3.999  -0.754   2.795 -1.9224  0.1693 -1.5149
   12CHTO    O4 5029   4.068  -0.610   2.931  0.3942  0.1698 -0.0485
   12CHTO   C14 5030   4.103  -0.479   2.960  0.4120  0.2071 -0.2759
   12CHTO   H27 5031   4.183  -0.496   3.036 -0.7270 -2.4476  0.3809
   12CHTO   C18 5032   3.986  -0.397   3.033 -0.2962 -0.0749  0.0724
   12CHTO   O13 5033   3.981  -0.438   3.173  1.3478 -0.4285  0.4940
   12CHTO    H7 5034   3.934  -0.519   3.175  1.5851 -0.6569 -1.7249
   12CHTO    O2 5035   3.840  -0.595   2.836 -0.0191 -0.0222  0.2657
   12CHTO    C1 5036   3.750  -0.705   2.846 -0.1866 -0.1198  0.8552
   12CHTO   H14 5037   3.793  -0.802   2.815  2.8830  2.2162 -2.7217
   12CHTO    C2 5038   3.616  -0.664   2.769  0.0265 -0.2392 -0.0584
   12CHTO   H15 5039   3.581  -0.568   2.809  0.4705  0.4169 -1.2446
   12CHTO    O6 5040   3.648  -0.646   2.635 -0.5947 -0.2105 -0.0820
   12CHTO    H1 5041   3.601  -0.575   2.597 -0.7027 -0.1985  0.0734
   12CHTO    C3 5042   3.508  -0.783   2.796 -0.0540  0.4304  0.3608
   12CHTO   H16 5043   3.555  -0.880   2.771 -0.2480  0.1650  1.0235
   12CHTO    N1 5044   3.374  -0.783   2.726 -0.0339 -0.0473 -0.4017
   12CHTO    H8 5045   3.302  -0.782   2.806  0.2195  2.5824 -0.1450
   12CHTO    H9 5046   3.372  -0.687   2.675  2.2950  1.0339  1.4272
   12CHTO    C4 5047   3.481  -0.792   2.955  0.4449  0.2912  0.2507
   12CHTO   H17 5048   3.438  -0.696   2.983 -1.8177 -0.2037 -1.4668
   12CHTO    O1 5049   3.602  -0.818   3.030  0.3924  0.0967  0.2695
   12CHTO    C5 5050   3.710  -0.731   3.002  0.3517 -0.3938 -0.0512
   12CHTO   H18 5051   3.690  -0.630   3.039  1.9608  0.6240 -1.8624
   12CHTO   C16 5052   3.822  -0.788   3.083 -0.4293  0.0716  0.1814
   12CHTO   O11 5053   3.803  -0.784   3.228  0.1404  0.5414  0.4298
   12CHTO    H5 5054   3.770  -0.703   3.261  1.8714  1.6102 -0.4125
   12CHTO    O3 5055   3.403  -0.901   3.002 -0.3976 -0.2092 -0.0789
   12CHTO    C6 5056   3.329  -0.894   3.133 -0.1119 -0.1014 -0.3595
   12CHTO   H19 5057   3.385  -0.830   3.202  0.3034 -0.4005 -0.4125
   12CHTO    C8 5058   3.182  -0.842   3.130  0.0322 -0.4826  0.0864
   12CHTO   H21 5059   3.119  -0.918   3.084 -2.4989  2.2666 -1.1898
   12CHTO    O7 5060   3.181  -0.712   3.071  0.1397  0.0638  0.1559
   12CHTO    H2 5061   3.228  -0.639   3.106 -0.7543  1.3252 -1.2478
   12CHTO   C12 5062   3.123  -0.837   3.274 -0.7901  0.0664  0.1134
   12CHTO   H25 5063   3.171  -0.757   3.335  0.1647 -1.8632  1.9308
   12CHTO    N3 5064   2.981  -0.793   3.274  0.2808  0.0282 -0.5083
   12CHTO   H12 5065   2.977  -0.698   3.222 -0.9186  1.3559  1.8784
   12CHTO   H13 5066   2.913  -0.866   3.235 -0.9810  1.2428 -0.6404
   12CHTO   C15 5067   3.146  -0.968   3.356 -0.3344 -0.0585  0.3386
   12CHTO   H28 5068   3.070  -1.044   3.344 -0.2798 -0.1640  0.6407
   12CHTO   O10 5069   3.159  -0.933   3.511  0.0806  0.0106 -0.2859
   12CHTO    H4 5070   3.077  -0.951   3.551  0.4046 -2.3569 -0.5864
   12CHTO    O5 5071   3.270  -1.035   3.334 -0.8475  0.1558 -0.0672
   12CHTO   C10 5072   3.326  -1.031   3.199 -0.0087 -0.2406 -0.1111
   12CHTO   H23 5073   3.260  -1.100   3.145 -2.5531  0.6628  1.7518
   12CHTO   C17 5074   3.470  -1.087   3.221 -0.0896 -0.3986 -0.4425
   12CHTO   O12 5075   3.470  -1.221   3.262  0.2540 -0.3290  0.6916
   12CHTO    H6 5076   3.477  -1.223   3.356  0.5307  1.1031  0.7112
   13CHTO  H203 5077   7.173   4.961   1.890 -1.2391 -0.0405  1.1506
   13CHTO   O82 5078   7.203   5.039   1.933  0.8062  0.0105 -0.2613
   13CHTO  C123 5079   7.130   5.150   1.887  0.1059 -0.3971  0.0287
   13CHTO  H227 5080   7.158   5.163   1.781  1.2858 -0.3011  0.3523
   13CHTO   O77 5081   6.991   5.123   1.906  0.8150  0.1538 -0.1906
   13CHTO  C118 5082   6.893   5.214   1.849 -0.3335  0.0103  0.5129
   13CHTO  H222 5083   6.910   5.237   1.743 -2.4008 -0.1698  0.1069
   13CHTO  C125 5084   6.743   5.145   1.868 -0.1922 -0.6839 -0.0997
   13CHTO   O84 5085   6.699   5.131   1.999  0.8719 -0.3061 -0.1676
   13CHTO  H205 5086   6.718   5.042   2.022 -1.2053 -1.0278 -1.1364
   13CHTO  C114 5087   6.912   5.343   1.931  0.1677 -0.0349  0.4741
   13CHTO  H218 5088   6.888   5.324   2.035 -1.9190  1.4955  0.2914
   13CHTO  C116 5089   7.060   5.396   1.934 -0.6981 -0.2178  0.6357
   13CHTO  H220 5090   7.087   5.425   1.831 -0.1773  1.8240  1.3258
   13CHTO   O79 5091   7.082   5.503   2.025 -0.1668 -0.3332  0.7898
   13CHTO  H201 5092   7.051   5.476   2.110  2.0508 -2.3566  1.0112
   13CHTO  C120 5093   7.161   5.283   1.967  0.7308 -0.1720 -0.5527
   13CHTO  H224 5094   7.146   5.258   2.074  1.4424 -2.8576 -1.0218
   13CHTO   N21 5095   7.298   5.332   1.934 -0.1518  0.6197 -0.2276
   13CHTO  H211 5096   7.355   5.247   1.902 -0.0326  0.2368  0.9882
   13CHTO  H212 5097   7.343   5.379   2.020  1.0315  1.4014 -1.2584
   13CHTO   O75 5098   6.821   5.435   1.874  0.0204  0.0261 -0.1449
   13CHTO  C112 5099   6.694   5.495   1.967  0.2023 -0.1555 -0.2325
   13CHTO  H216 5100   6.708   5.478   2.075 -2.0108  1.6480  0.3585
   13CHTO   O73 5101   6.569   5.438   1.921 -0.1505 -0.1753  0.1464
   13CHTO  C113 5102   6.472   5.452   2.021 -0.1630  0.1991  0.2433
   13CHTO  H217 5103   6.494   5.424   2.126 -1.6863 -0.9328  0.2741
   13CHTO  C124 5104   6.349   5.369   1.972 -0.4624 -0.7089 -0.4702
   13CHTO   O83 5105   6.365   5.221   1.975 -0.1342  0.4071 -0.0017
   13CHTO  H204 5106   6.332   5.192   1.892  0.7463 -0.1736 -0.1568
   13CHTO  C109 5107   6.426   5.594   2.017 -0.2859  0.3669 -0.2057
   13CHTO  H213 5108   6.387   5.611   1.916 -1.2488 -0.7535 -0.0393
   13CHTO  C110 5109   6.547   5.687   2.044 -0.4405 -1.0487 -0.4503
   13CHTO  H214 5110   6.576   5.679   2.148 -0.4034 -0.4023 -0.4103
   13CHTO   O78 5111   6.514   5.826   2.012  0.4104 -0.0431 -0.4599
   13CHTO  H200 5112   6.474   5.839   1.928 -0.1831  1.9834  0.1276
   13CHTO  C111 5113   6.675   5.654   1.959 -0.0980  0.1299  0.2167
   13CHTO  H215 5114   6.659   5.672   1.852  0.0033  0.8420  0.3184
   13CHTO   N19 5115   6.794   5.733   1.999 -0.1440 -0.4301 -0.5177
   13CHTO  H207 5116   6.848   5.710   2.090 -0.6856  0.6969  0.1066
   13CHTO  H208 5117   6.869   5.732   1.922  0.2288  2.0523 -0.2475
   13CHTO   O74 5118   6.324   5.621   2.112 -0.1011 -0.1516  0.2671
   13CHTO  C115 5119   6.214   5.730   2.068  0.5596  0.0355 -0.5800
   13CHTO  H219 5120   6.243   5.830   2.098 -1.7272  0.7269 -0.6053
   13CHTO   O76 5121   6.201   5.737   1.927 -0.4895  0.7503 -0.1036
   13CHTO  C122 5122   6.094   5.817   1.880  0.3775  0.5562  0.5598
   13CHTO  H226 5123   6.090   5.806   1.771  1.7737  0.1724  0.5388
   13CHTO  C126 5124   6.133   5.968   1.900 -0.2078 -0.4668  0.5835
   13CHTO   O85 5125   6.254   6.002   1.826 -0.4062  0.3144 -0.4054
   13CHTO  H206 5126   6.325   5.952   1.861 -0.5495 -0.0518 -0.6362
   13CHTO  C121 5127   5.957   5.792   1.931  0.5515 -0.7824 -0.4978
   13CHTO  H225 5128   5.891   5.878   1.907  0.2131 -0.2171  2.2299
   13CHTO   O81 5129   5.900   5.683   1.859 -0.3366  1.2847 -0.1204
   13CHTO  H202 5130   5.919   5.602   1.902 -0.2148  1.6366  0.4902
   13CHTO  C119 5131   5.956   5.775   2.081 -1.3558  0.0581 -0.0134
   13CHTO  H223 5132   5.972   5.874   2.123  0.4594 -0.2381  0.0217
   13CHTO  C117 5133   6.077   5.698   2.141  0.7529  0.1626 -0.3158
   13CHTO  H221 5134   6.065   5.591   2.124  0.3379 -0.1372  1.6775
   13CHTO   N20 5135   6.093   5.713   2.292 -0.0979  0.2098  0.5444
   13CHTO  H209 5136   6.106   5.820   2.305 -1.0271  0.3416  0.4633
   13CHTO  H210 5137   6.000   5.688   2.341 -0.8290  1.1832 -0.3187
   13CHTO   O80 5138   5.815   5.731   2.153 -0.0877  0.4494  0.4021
   13CHTO  C103 5139   5.718   5.843   2.227  0.4482  0.1509 -0.4973
   13CHTO  H190 5140   5.656   5.793   2.303  2.1429 -0.7988  0.3024
   13CHTO  C101 5141   5.782   5.963   2.308  0.0048  0.4685  0.1781
   13CHTO  H188 5142   5.856   6.010   2.244  0.5135 -1.0330 -0.3737
   13CHTO   O68 5143   5.859   5.915   2.433 -0.2288 -0.3494 -0.2628
   13CHTO  H168 5144   5.923   5.848   2.416 -1.1696 -2.1929  2.9258
   13CHTO   C99 5145   5.667   6.075   2.354  0.8303  0.1658 -0.2254
   13CHTO  H186 5146   5.607   6.024   2.432  2.1539 -1.7858 -0.4527
   13CHTO   N17 5147   5.729   6.202   2.404  0.0807 -0.4987 -0.0950
   13CHTO  H174 5148   5.691   6.292   2.358 -1.3976 -1.7327 -1.3227
   13CHTO  H175 5149   5.837   6.190   2.405  0.0653 -0.6347  0.8961
   13CHTO   C97 5150   5.565   6.104   2.242 -0.3844 -0.2545 -0.2188
   13CHTO  H184 5151   5.619   6.161   2.164 -0.2444 -0.8866 -0.5853
   13CHTO   O64 5152   5.514   5.982   2.189  0.2696 -0.4752 -0.0993
   13CHTO  C104 5153   5.617   5.904   2.122 -0.1682  0.0441 -0.1867
   13CHTO  H191 5154   5.675   5.957   2.046 -0.2227 -0.2884 -0.4624
   13CHTO  C108 5155   5.541   5.794   2.052  0.3601 -0.4905  0.7293
   13CHTO   O71 5156   5.560   5.805   1.913  0.3007  0.1930 -0.0864
   13CHTO  H171 5157   5.544   5.726   1.864  1.9057  0.6864 -1.4550
   13CHTO   O62 5158   5.455   6.186   2.292 -0.1481 -0.2797  0.2790
   13CHTO   C91 5159   5.358   6.240   2.198  1.0019  0.8533  0.1013
   13CHTO  H178 5160   5.367   6.188   2.102 -0.3360 -1.9946  1.4388
   13CHTO   C92 5161   5.391   6.387   2.179 -0.4150  0.5428 -0.3588
   13CHTO  H179 5162   5.403   6.433   2.278  2.2096 -2.1242  0.6557
   13CHTO   O66 5163   5.531   6.397   2.129  0.1300  0.3335 -0.7644
   13CHTO  H166 5164   5.595   6.399   2.197 -1.2589  0.6526  0.5567
   13CHTO   C93 5165   5.286   6.451   2.076  0.0092  0.2876 -0.1164
   13CHTO  H180 5166   5.325   6.425   1.976 -0.3455  0.7525 -0.3728
   13CHTO   N16 5167   5.294   6.593   2.071  0.1253 -0.1479  0.4359
   13CHTO  H172 5168   5.199   6.644   2.079 -0.1538 -0.6666  0.4560
   13CHTO  H173 5169   5.354   6.637   1.992  2.3233 -0.9121  1.6270
   13CHTO   C94 5170   5.132   6.405   2.093 -0.2198 -0.3326 -0.7189
   13CHTO  H181 5171   5.082   6.459   2.174 -0.0192  0.7673 -1.3273
   13CHTO   O61 5172   5.118   6.270   2.141  0.7882 -0.2865  0.1584
   13CHTO   C95 5173   5.210   6.229   2.244  0.2114 -0.3944 -0.3654
   13CHTO  H182 5174   5.195   6.290   2.333 -0.8421 -0.7083 -0.3288
   13CHTO  C106 5175   5.169   6.087   2.290 -0.3014 -0.4349 -0.1531
   13CHTO   O69 5176   5.186   6.001   2.181 -0.7435 -0.1392  0.5199
   13CHTO  H169 5177   5.201   6.052   2.104  1.4467 -0.7457  0.5121
   13CHTO   O63 5178   5.048   6.426   1.961  0.5253 -0.1125 -0.0913
   13CHTO   C96 5179   4.885   6.395   1.978 -0.1317  0.3138  0.0550
   13CHTO  H183 5180   4.838   6.449   1.896 -2.1044  0.6168  1.3294
   13CHTO   C98 5181   4.829   6.444   2.114  0.3063 -0.3773  0.5842
   13CHTO  H185 5182   4.886   6.391   2.193  0.8023 -0.6829  0.0229
   13CHTO   O67 5183   4.871   6.584   2.119 -0.2013 -0.5700 -0.3609
   13CHTO  H167 5184   4.813   6.652   2.091  1.5144  1.4431  0.7592
   13CHTO  C102 5185   4.682   6.410   2.129 -0.1382 -0.2995  0.0525
   13CHTO  H189 5186   4.623   6.472   2.060 -0.9659 -1.4729 -0.3188
   13CHTO   N18 5187   4.621   6.440   2.259  0.0461 -0.1189 -0.8597
   13CHTO  H176 5188   4.691   6.427   2.341  0.2221  0.6780 -0.8780
   13CHTO  H177 5189   4.593   6.544   2.270 -0.3555 -0.3618  0.4123
   13CHTO  C105 5190   4.652   6.261   2.101  0.5094 -0.0550 -0.3403
   13CHTO  H192 5191   4.698   6.201   2.179  1.0407  2.0569  1.0269
   13CHTO   O65 5192   4.713   6.214   1.979 -0.2720 -0.1410  0.0757
   13CHTO  C100 5193   4.857   6.232   1.971  0.1798 -0.0634  0.7199
   13CHTO  H187 5194   4.900   6.184   2.060  2.0659 -0.3757 -0.3410
   13CHTO  C107 5195   4.896   6.163   1.842  0.6744 -0.4269  0.1269
   13CHTO   O70 5196   5.034   6.141   1.834 -0.1006 -0.0141 -0.5209
   13CHTO  H170 5197   5.077   6.225   1.837 -0.1805  0.1566 -3.1669
   13CHTO   O57 5198   4.483   6.237   2.089  0.2301 -0.1055 -0.7736
   13CHTO   C85 5199   4.419   6.245   1.963 -0.0386 -0.1666  0.0239
   13CHTO  H157 5200   4.490   6.249   1.878  1.8408  0.2284  1.6041
   13CHTO   C83 5201   4.330   6.374   1.953  1.0751 -0.0928 -0.2037
   13CHTO  H155 5202   4.396   6.461   1.956  0.5602  0.2650  1.9273
   13CHTO   O56 5203   4.239   6.380   2.066  0.2959  0.0787  0.3902
   13CHTO  H135 5204   4.283   6.381   2.149  1.7311  0.0828 -0.3512
   13CHTO   C81 5205   4.263   6.366   1.816  0.4014 -0.0890  0.0056
   13CHTO  H153 5206   4.338   6.352   1.739 -1.1495 -0.8915 -1.4017
   13CHTO   N14 5207   4.190   6.491   1.781 -0.0594  0.1662  0.0119
   13CHTO  H141 5208   4.243   6.567   1.728 -0.5703  0.0533 -0.6669
   13CHTO  H142 5209   4.138   6.534   1.864 -0.8409 -1.0493  0.1696
   13CHTO   C79 5210   4.166   6.246   1.810 -0.2083 -0.0549  0.4535
   13CHTO  H151 5211   4.132   6.236   1.707 -3.4145 -1.2675  1.5891
   13CHTO   O52 5212   4.246   6.117   1.826 -0.1035  0.1410  0.0171
   13CHTO   C86 5213   4.332   6.119   1.952  0.4280 -0.2207 -0.2425
   13CHTO  H158 5214   4.265   6.103   2.039 -0.5359 -2.0575 -1.2842
   13CHTO   C90 5215   4.425   5.999   1.946  0.1258 -0.5302 -0.0703
   13CHTO   O60 5216   4.357   5.876   1.957 -0.2459 -0.5096  0.2447
   13CHTO  H138 5217   4.416   5.804   1.968 -0.4833 -0.9236 -1.1980
   13CHTO   O50 5218   4.054   6.257   1.903 -0.5316  0.4750 -0.5616
   13CHTO   C73 5219   3.916   6.259   1.872 -0.4688  0.0323 -0.4367
   13CHTO  H145 5220   3.905   6.255   1.763  0.9763  0.7868 -0.6197
   13CHTO   C74 5221   3.839   6.387   1.937 -0.1119  0.2274  0.0960
   13CHTO  H146 5222   3.877   6.477   1.886 -0.9734  0.8961  0.6161
   13CHTO   O54 5223   3.703   6.369   1.902 -0.3269 -0.4131 -0.3651
   13CHTO  H133 5224   3.656   6.354   1.982 -0.3130 -0.6149 -0.3951
   13CHTO   C75 5225   3.872   6.384   2.089 -0.1100 -0.1067 -0.5654
   13CHTO  H147 5226   3.980   6.394   2.104  0.0392 -2.0794 -0.1829
   13CHTO   N13 5227   3.811   6.500   2.165  0.3309  0.1044 -0.7528
   13CHTO  H139 5228   3.871   6.589   2.163  2.2410 -1.1417 -0.1890
   13CHTO  H140 5229   3.708   6.522   2.139  0.2049  0.9146  0.3801
   13CHTO   C76 5230   3.827   6.240   2.148  0.5031 -0.2622 -0.2568
   13CHTO  H148 5231   3.719   6.239   2.131 -0.0103 -1.0557  2.8767
   13CHTO   O49 5232   3.881   6.125   2.076 -0.1808 -0.5549 -0.3919
   13CHTO   C77 5233   3.855   6.130   1.936  0.2570  0.1362 -0.5660
   13CHTO  H149 5234   3.748   6.127   1.918  0.2097 -0.9713 -0.1657
   13CHTO   C88 5235   3.913   6.000   1.886 -0.5094  0.8667 -0.1475
   13CHTO   O58 5236   3.903   5.985   1.718  0.4985 -0.3996  1.0361
   13CHTO  H136 5237   3.925   6.066   1.675 -2.0110 -0.9274 -1.4077
   13CHTO   O51 5238   3.852   6.211   2.299  0.3455 -0.0304 -0.2573
   13CHTO   C78 5239   4.005   6.211   2.377 -0.3092  0.2506  0.2297
   13CHTO  H150 5240   3.980   6.170   2.477  2.0171 -0.4352  0.5607
   13CHTO   C80 5241   4.067   6.342   2.405  0.9502  0.1675 -0.1458
   13CHTO  H152 5242   4.089   6.397   2.310  1.2630 -0.3807 -0.3928
   13CHTO   O55 5243   3.975   6.423   2.474 -0.0680  0.2918 -0.1343
   13CHTO  H134 5244   4.022   6.472   2.538  0.5139 -1.7863  1.0636
   13CHTO   C84 5245   4.202   6.325   2.483 -0.1573  0.6721  0.6647
   13CHTO  H156 5246   4.174   6.279   2.578 -1.7028 -0.6536 -0.4147
   13CHTO   N15 5247   4.273   6.458   2.513  0.3073  0.5347 -0.1596
   13CHTO  H143 5248   4.247   6.493   2.611 -0.4306  2.7038 -1.1093
   13CHTO  H144 5249   4.250   6.538   2.446  0.0488  0.7482  0.1835
   13CHTO   C87 5250   4.295   6.220   2.415 -0.3342 -0.2529 -0.3447
   13CHTO  H159 5251   4.337   6.244   2.317 -1.0729  0.5118 -0.4755
   13CHTO   O53 5252   4.223   6.103   2.394 -0.3099 -0.1797  0.7352
   13CHTO   C82 5253   4.105   6.118   2.311  0.0536  0.0878  0.2005
   13CHTO  H154 5254   4.131   6.163   2.215 -0.1344  0.7215  0.4471
   13CHTO   C89 5255   4.049   5.978   2.274  0.1317  0.2532  0.1030
   13CHTO   O59 5256   4.152   5.911   2.201 -0.9091  0.1906  0.3237
   13CHTO  H137 5257   4.197   5.963   2.137  0.3800 -0.6306  0.5302
   13CHTO   O45 5258   4.425   6.188   2.507 -0.1772 -0.2441 -0.2463
   13CHTO   C67 5259   4.478   6.059   2.527  0.0697  0.7899  0.4572
   13CHTO  H124 5260   4.413   5.980   2.490  3.2307 -1.9534  0.4386
   13CHTO   C65 5261   4.621   6.045   2.458  0.2678  0.3761 -0.3795
   13CHTO  H122 5262   4.609   6.079   2.355  0.9345  0.1323 -0.5437
   13CHTO   O44 5263   4.670   5.914   2.463 -0.6274 -0.1695 -0.0408
   13CHTO  H102 5264   4.677   5.870   2.381  0.4950 -0.1759  0.0412
   13CHTO   C63 5265   4.719   6.156   2.521 -0.2137  0.3415  0.5533
   13CHTO  H120 5266   4.673   6.253   2.505 -0.8919  0.0331  0.5920
   13CHTO   N11 5267   4.849   6.194   2.454 -0.5212  0.1954 -0.5739
   13CHTO  H108 5268   4.900   6.106   2.421 -0.3500  0.8184 -2.0170
   13CHTO  H109 5269   4.916   6.249   2.517  0.6899  0.0890 -1.7365
   13CHTO   C61 5270   4.716   6.132   2.676 -0.9807 -0.6629 -1.0176
   13CHTO  H118 5271   4.774   6.216   2.718  0.3400 -1.8122 -0.5244
   13CHTO   O40 5272   4.585   6.128   2.740  0.2272  0.2264  0.0903
   13CHTO   C68 5273   4.485   6.046   2.673  0.2302 -0.0198  1.2292
   13CHTO  H125 5274   4.390   6.084   2.717 -0.9411 -0.0290 -1.1787
   13CHTO   C72 5275   4.498   5.890   2.712 -0.6328 -0.7976 -0.2486
   13CHTO   O48 5276   4.501   5.878   2.852  0.0858  0.3248 -0.3583
   13CHTO  H105 5277   4.587   5.849   2.876  0.8483  0.5105 -2.7000
   13CHTO   O38 5278   4.785   6.014   2.720  0.5549  0.4202 -0.2786
   13CHTO   C55 5279   4.877   6.016   2.832  0.6734 -0.5616 -0.5492
   13CHTO  H112 5280   4.877   5.908   2.854  1.5498 -0.2123  1.2731
   13CHTO   C56 5281   4.847   6.104   2.966 -0.0458 -0.2794  0.3499
   13CHTO  H113 5282   4.830   6.210   2.940  2.8220  0.6988  2.2074
   13CHTO   O42 5283   4.726   6.051   3.026  0.0148 -0.1456  0.2066
   13CHTO  H100 5284   4.653   6.081   2.975 -0.3408 -0.3566  0.5868
   13CHTO   C57 5285   4.969   6.081   3.067 -0.4022 -0.9280 -0.2427
   13CHTO  H114 5286   4.982   5.975   3.089 -2.3445 -0.8679  1.3708
   13CHTO   N10 5287   4.950   6.145   3.200  0.0470  0.3540 -0.4693
   13CHTO  H106 5288   4.881   6.225   3.180  0.5315  1.0002  0.3950
   13CHTO  H107 5289   4.906   6.078   3.272  0.2016 -0.3857 -1.0586
   13CHTO   C58 5290   5.093   6.139   2.996 -0.6201  0.1234  0.0715
   13CHTO  H115 5291   5.077   6.244   2.963  1.1179 -0.1305 -1.6670
   13CHTO   O37 5292   5.120   6.050   2.884  0.3613  0.3741  0.7262
   13CHTO   C59 5293   5.019   6.050   2.785 -0.1766 -0.7921  0.2320
   13CHTO  H116 5294   5.016   6.144   2.729 -2.5682 -2.1570 -2.0779
   13CHTO   C70 5295   5.068   5.945   2.686 -0.5606 -0.3331 -0.3185
   13CHTO   O46 5296   4.998   5.935   2.566  0.0237  0.1819  0.1996
   13CHTO  H103 5297   5.061   5.898   2.507 -1.8489  0.8226 -2.3193
   13CHTO   O39 5298   5.223   6.139   3.075 -0.1644  0.2899  0.2228
   13CHTO   C60 5299   5.293   6.262   3.078  0.2371  0.2099  0.5744
   13CHTO  H117 5300   5.285   6.298   2.975 -1.0749 -0.2782  0.4963
   13CHTO   C62 5301   5.235   6.363   3.183 -0.4447 -1.1206 -0.0860
   13CHTO  H119 5302   5.145   6.407   3.135  0.2661  1.6374  1.0158
   13CHTO   O43 5303   5.220   6.279   3.307 -0.0743 -0.0218  0.0719
   13CHTO  H101 5304   5.195   6.333   3.379 -1.0869 -0.2969 -0.0717
   13CHTO   C66 5305   5.345   6.482   3.193 -0.1641  0.3912 -0.2069
   13CHTO  H123 5306   5.352   6.527   3.093 -0.9933 -0.9415 -0.8792
   13CHTO   N12 5307   5.294   6.588   3.285  0.4848 -0.0125 -0.0273
   13CHTO  H110 5308   5.211   6.637   3.235  1.2487  0.8296 -0.4938
   13CHTO  H111 5309   5.263   6.545   3.379  0.0227 -2.3377 -1.2206
   13CHTO   C69 5310   5.479   6.422   3.233  0.0058 -0.1239 -0.0474
   13CHTO  H126 5311   5.473   6.361   3.325  0.9289 -1.7010 -1.0339
   13CHTO   O41 5312   5.523   6.317   3.114 -0.0567 -0.0633 -0.0106
   13CHTO   C64 5313   5.443   6.217   3.100 -0.1803 -0.4577  0.0987
   13CHTO  H121 5314   5.463   6.155   3.190  0.7118  0.8273  0.7886
   13CHTO   C71 5315   5.495   6.134   2.976 -0.4412 -0.0210  0.4491
   13CHTO   O47 5316   5.426   6.015   2.943  0.1065 -0.0152  0.6557
   13CHTO  H104 5317   5.354   6.031   2.886 -1.0849  0.0990  2.1650
   13CHTO   O34 5318   5.604   6.546   3.242  0.2258  0.7337 -0.8880
   13CHTO   C49 5319   5.726   6.526   3.321 -0.1696  0.4206  0.3172
   13CHTO   H91 5320   5.747   6.419   3.309 -2.1826 -0.1556  1.6488
   13CHTO   C47 5321   5.691   6.565   3.464  0.2371 -0.9704 -0.4641
   13CHTO   H89 5322   5.777   6.531   3.525  0.8255  0.3973 -0.5226
   13CHTO   O33 5323   5.570   6.499   3.504  0.2966 -0.3084 -0.1980
   13CHTO   H70 5324   5.554   6.510   3.596 -1.0151 -0.1869 -0.4345
   13CHTO   C45 5325   5.671   6.722   3.483 -0.0264 -0.1809 -0.3479
   13CHTO   H87 5326   5.563   6.734   3.472 -0.0716  1.7457  1.9120
   13CHTO    N8 5327   5.709   6.757   3.621  0.5138 -0.0589  0.2867
   13CHTO   H75 5328   5.816   6.757   3.636  0.7789  3.6415 -1.0885
   13CHTO   H76 5329   5.664   6.853   3.644  0.3353 -0.1295  0.2347
   13CHTO   C43 5330   5.733   6.799   3.357 -1.0405 -0.0270  0.3598
   13CHTO   H85 5331   5.653   6.794   3.284 -3.4195  0.0908  2.8865
   13CHTO   O29 5332   5.853   6.741   3.312 -0.4963 -0.0034  0.0661
   13CHTO   C50 5333   5.844   6.610   3.262 -0.0997  0.3307 -0.4310
   13CHTO   H92 5334   5.832   6.611   3.152 -1.3999  3.3777 -0.3048
   13CHTO   C54 5335   5.978   6.535   3.289  0.2012 -0.0706  0.0881
   13CHTO   O36 5336   5.980   6.394   3.266  0.4868 -0.7146  0.1577
   13CHTO   H72 5337   5.931   6.353   3.334 -1.5082 -0.8571 -1.3385
   13CHTO   O27 5338   5.755   6.930   3.389  0.1943 -0.1630  0.0291
   13CHTO   C37 5339   5.753   7.071   3.392  0.0516 -0.4171 -0.2838
   13CHTO   H79 5340   5.651   7.095   3.423  0.4563  1.0228 -0.0471
   13CHTO   C38 5341   5.857   7.123   3.495  0.1413  0.3101  0.5984
   13CHTO   H80 5342   5.952   7.070   3.480 -0.1978 -1.5937  4.4232
   13CHTO   O31 5343   5.823   7.079   3.630 -0.2323 -0.2648 -0.1369
   13CHTO   H68 5344   5.811   6.986   3.634  3.0882 -0.7043  1.7026
   13CHTO   C39 5345   5.868   7.290   3.497  0.3425 -0.3432  0.2221
   13CHTO   H81 5346   5.774   7.327   3.538 -1.5130 -3.1571 -1.3249
   13CHTO    N7 5347   5.980   7.348   3.582  0.8853 -0.2937  0.3435
   13CHTO   H73 5348   6.065   7.285   3.562 -2.4941 -3.8582 -3.6714
   13CHTO   H74 5349   5.948   7.334   3.685  0.3886  0.0141  0.2311
   13CHTO   C40 5350   5.878   7.339   3.350  0.9630 -0.5294 -0.3500
   13CHTO   H82 5351   5.974   7.316   3.304  1.5808 -1.6331  1.4366
   13CHTO   O26 5352   5.768   7.281   3.275  0.1234  0.1798 -0.7779
   13CHTO   C41 5353   5.783   7.135   3.256  0.1630  0.4145 -0.4879
   13CHTO   H83 5354   5.883   7.122   3.213 -0.2551  2.2418 -2.0815
   13CHTO   C52 5355   5.679   7.089   3.144  0.4330 -0.3745  0.3544
   13CHTO   O35 5356   5.752   6.981   3.068 -0.2215  0.0070  0.1611
   13CHTO   H71 5357   5.811   7.026   3.011 -2.4806  2.8725 -0.0378
   13CHTO   O28 5358   5.859   7.479   3.337  0.1180  0.0024 -0.1945
   13CHTO   C42 5359   5.875   7.574   3.220 -0.4003 -0.7327  0.2391
   13CHTO   H84 5360   5.976   7.557   3.184 -0.3727  1.4336 -0.7673
   13CHTO   C44 5361   5.869   7.724   3.267 -0.0233 -0.3471 -0.3189
   13CHTO   H86 5362   5.779   7.737   3.328  1.4957  0.6390  1.7520
   13CHTO   O32 5363   5.971   7.744   3.365 -0.0397 -0.5275 -0.4071
   13CHTO   H69 5364   6.003   7.832   3.360 -1.1742 -0.1244 -0.5581
   13CHTO   C48 5365   5.862   7.827   3.149 -0.6559  1.1355 -0.9044
   13CHTO   H90 5366   5.958   7.821   3.097 -0.3849 -0.6813 -0.2193
   13CHTO    N9 5367   5.859   7.967   3.203  0.0762  0.1580 -0.3691
   13CHTO   H77 5368   5.946   8.022   3.168 -0.5332  1.4652  0.1314
   13CHTO   H78 5369   5.766   8.018   3.181 -1.1820 -2.1403 -0.5334
   13CHTO   C51 5370   5.745   7.787   3.054 -0.0809 -0.0350  0.1952
   13CHTO   H93 5371   5.650   7.789   3.108 -0.3313  0.5029 -0.2716
   13CHTO   O30 5372   5.768   7.659   3.000  0.1333  0.1473  0.2173
   13CHTO   C46 5373   5.771   7.542   3.108 -0.4295  0.8985 -0.1835
   13CHTO   H88 5374   5.677   7.525   3.160  0.0238  1.2009  0.7520
   13CHTO   C53 5375   5.824   7.422   3.023  0.4399 -0.0507 -0.2247
   13CHTO   O72 5376   5.714   7.380   2.939  0.4649 -0.0849  0.4115
   13CHTO  H199 5377   5.673   7.303   2.974 -0.8902  0.4397  0.0229
   13CHTO   O22 5378   5.738   7.863   2.937  0.0197 -0.2745  0.0678
   13CHTO   C31 5379   5.612   7.893   2.870 -0.5063  0.5676  0.4454
   13CHTO   H59 5380   5.636   7.949   2.777  0.9113  0.1400  0.5388
   13CHTO   C29 5381   5.524   7.773   2.830  0.3510  0.8440  0.4431
   13CHTO   H57 5382   5.487   7.726   2.922 -1.3462  0.3047 -0.4838
   13CHTO   O21 5383   5.600   7.676   2.758 -0.7788  0.2749 -0.1060
   13CHTO   H37 5384   5.567   7.590   2.774  1.5824 -0.7225 -0.4450
   13CHTO   C27 5385   5.396   7.815   2.745 -0.2135  0.6017 -0.2149
   13CHTO   H55 5386   5.436   7.864   2.656 -0.1744  0.3193 -0.3532
   13CHTO    N5 5387   5.298   7.709   2.705 -0.1006 -0.5479  0.0616
   13CHTO   H43 5388   5.200   7.747   2.679  0.8213  0.7963 -1.5557
   13CHTO   H44 5389   5.324   7.641   2.625 -3.1259 -1.9550  0.1853
   13CHTO   C25 5390   5.324   7.928   2.830 -0.3176  0.0344  0.1487
   13CHTO   H53 5391   5.287   7.890   2.927  1.6271  0.1173  0.9487
   13CHTO   O17 5392   5.420   8.035   2.861  0.1606  0.1327 -0.1482
   13CHTO   C32 5393   5.523   7.996   2.955  0.3262 -0.7105  0.7858
   13CHTO   H60 5394   5.485   7.943   3.042 -2.3431 -0.2629 -0.0585
   13CHTO   C36 5395   5.591   8.128   3.006 -0.1400  0.1387 -0.4294
   13CHTO   O25 5396   5.696   8.172   2.912  0.1636  0.1248  0.2302
   13CHTO   H40 5397   5.658   8.203   2.832  0.2725  0.6937  0.3976
   13CHTO   O15 5398   5.214   8.001   2.745  0.2949 -0.8850 -0.0334
   13CHTO   C19 5399   5.096   8.083   2.790  0.3638  0.2053  0.7208
   13CHTO   H47 5400   5.102   8.076   2.900 -0.6232  0.8022  0.8191
   13CHTO   C20 5401   5.096   8.231   2.740  0.4793  0.6442  0.2845
   13CHTO   H48 5402   5.093   8.237   2.630  2.8266 -1.2206  0.0908
   13CHTO   O19 5403   5.223   8.288   2.784 -0.0029 -0.2823 -0.5682
   13CHTO   H35 5404   5.292   8.265   2.726  0.3761  2.1640 -1.1284
   13CHTO   C21 5405   4.976   8.323   2.798 -0.2466  0.7136  0.0604
   13CHTO   H49 5406   5.004   8.347   2.901 -1.5963 -0.0007  0.6035
   13CHTO    N4 5407   4.969   8.457   2.741  0.0029  0.1246  0.1552
   13CHTO   H41 5408   4.945   8.531   2.816 -0.7821 -1.1707  1.2000
   13CHTO   H42 5409   5.060   8.486   2.691  0.3673  0.6863  1.1383
   13CHTO   C22 5410   4.845   8.247   2.774 -0.9127 -0.6073 -0.0944
   13CHTO   H50 5411   4.825   8.245   2.667 -0.1102 -0.5035 -0.2514
   13CHTO   O14 5412   4.860   8.114   2.816 -0.0402  0.4672 -0.2605
   13CHTO   C23 5413   4.957   8.025   2.757 -0.0554  0.1297  0.0161
   13CHTO   H51 5414   4.941   8.024   2.648  2.0435  0.0607 -0.3095
   13CHTO   C34 5415   4.941   7.888   2.823  0.0271 -0.1101  0.3630
   13CHTO   O23 5416   4.816   7.832   2.785  0.1090 -0.0400 -0.0210
   13CHTO   H38 5417   4.755   7.899   2.807 -0.7184 -1.1428  1.1995
   13CHTO   O16 5418   4.735   8.312   2.841 -0.1770  0.0799  0.3874
   13CHTO   C24 5419   4.596   8.331   2.741 -1.1283 -0.4751 -0.4590
   13CHTO   H52 5420   4.627   8.327   2.636  1.6077  0.3165  0.2872
   13CHTO   C26 5421   4.542   8.469   2.759 -0.4082  0.0793  0.1437
   13CHTO   H54 5422   4.532   8.489   2.868  1.3687  1.5894  0.0672
   13CHTO   O20 5423   4.641   8.556   2.714 -0.0377  0.6622 -0.3752
   13CHTO   H36 5424   4.654   8.642   2.750 -0.6578  0.9841 -0.8983
   13CHTO   C30 5425   4.404   8.495   2.685 -0.1339 -0.1983 -0.0483
   13CHTO   H58 5426   4.412   8.493   2.575 -0.2874  2.0708 -0.1299
   13CHTO    N6 5427   4.349   8.633   2.709 -0.1891 -0.0875  0.0774
   13CHTO   H45 5428   4.411   8.711   2.668  0.0528 -0.6729 -0.6722
   13CHTO   H46 5429   4.326   8.650   2.813  2.0421 -0.0062  0.5756
   13CHTO   C33 5430   4.302   8.384   2.722 -0.0051  0.2235 -0.8872
   13CHTO   H61 5431   4.288   8.382   2.831  1.9234  3.5540 -0.5254
   13CHTO   O18 5432   4.373   8.263   2.681 -0.8845 -0.2210 -0.1532
   13CHTO   C28 5433   4.492   8.223   2.759  0.3849 -0.1880 -0.2614
   13CHTO   H56 5434   4.464   8.218   2.865  0.7313 -2.5395 -0.2520
   13CHTO   C35 5435   4.546   8.088   2.709 -0.2533  0.5221 -0.5604
   13CHTO   O24 5436   4.467   7.978   2.739 -0.0167  0.2849  0.0197
   13CHTO   H39 5437   4.516   7.899   2.732 -2.0565 -0.9165 -1.5888
   13CHTO    O9 5438   4.167   8.389   2.666  0.5732  0.3381 -0.1129
   13CHTO   C13 5439   4.056   8.308   2.742 -0.5503  0.3026  0.1090
   13CHTO   H26 5440   4.096   8.210   2.775 -1.3732  0.1742  0.7468
   13CHTO   C11 5441   3.934   8.287   2.642  0.2360 -0.2741 -0.7147
   13CHTO   H24 5442   3.970   8.231   2.554  0.7757  0.1719 -0.7803
   13CHTO    O8 5443   3.888   8.418   2.597  0.2798 -0.0228  0.4767
   13CHTO    H3 5444   3.948   8.460   2.539 -0.2726 -0.9859 -0.8063
   13CHTO    C9 5445   3.824   8.201   2.719  0.1229  0.1220  0.7877
   13CHTO   H22 5446   3.868   8.101   2.728  1.5279  0.5951 -0.6133
   13CHTO    N2 5447   3.696   8.172   2.645  0.1597  0.1525  0.4561
   13CHTO   H10 5448   3.638   8.102   2.703  2.0442 -1.0840  0.8810
   13CHTO   H11 5449   3.636   8.262   2.635 -2.6895 -1.5532  1.7875
   13CHTO    C7 5450   3.803   8.256   2.870  0.2519 -0.4483 -0.2810
   13CHTO   H20 5451   3.857   8.175   2.924 -0.8147 -2.5066 -2.2446
   13CHTO    O4 5452   3.867   8.383   2.895  0.1438 -0.1184 -0.0044
   13CHTO   C14 5453   4.009   8.382   2.878  0.2337 -0.0331  0.2502
   13CHTO   H27 5454   4.054   8.328   2.963 -0.1274 -0.6650  0.0469
   13CHTO   C18 5455   4.046   8.530   2.880  0.0272  0.2998 -0.1375
   13CHTO   O13 5456   4.022   8.596   3.003 -0.6179  0.0343 -0.4496
   13CHTO    H7 5457   4.041   8.687   2.997 -0.7464  0.1764  1.0940
   13CHTO    O2 5458   3.645   8.273   2.919 -0.5564  0.5284 -0.0564
   13CHTO    C1 5459   3.624   8.242   3.060  0.2810 -0.3821 -0.0230
   13CHTO   H14 5460   3.721   8.254   3.113  0.6724  0.4715 -0.9137
   13CHTO    C2 5461   3.564   8.094   3.091  0.8632 -0.6054  0.2550
   13CHTO   H15 5462   3.471   8.086   3.033 -0.1232 -0.1837  1.7642
   13CHTO    O6 5463   3.656   8.002   3.031 -0.9481  0.2253  0.0996
   13CHTO    H1 5464   3.627   7.916   3.007  1.8621 -0.6333 -0.3933
   13CHTO    C3 5465   3.553   8.055   3.247  1.0047  0.6001  0.4228
   13CHTO   H16 5466   3.651   8.041   3.294  0.9899  0.9056  0.5446
   13CHTO    N1 5467   3.480   7.929   3.268  0.3335  0.5676 -0.5254
   13CHTO    H8 5468   3.460   7.913   3.373 -1.2628  0.9331 -0.7639
   13CHTO    H9 5469   3.390   7.926   3.209  0.7440  1.7625 -1.2097
   13CHTO    C4 5470   3.483   8.176   3.325  0.3112 -0.1592  0.8188
   13CHTO   H17 5471   3.374   8.169   3.316  0.4694 -0.2470 -1.2943
   13CHTO    O1 5472   3.523   8.311   3.281 -0.0505  0.1438  0.2152
   13CHTO    C5 5473   3.533   8.339   3.141 -0.3101 -0.4625 -0.0113
   13CHTO   H18 5474   3.433   8.323   3.101 -0.4365  0.1454  0.0568
   13CHTO   C16 5475   3.577   8.483   3.113 -0.3275 -0.4938  0.2814
   13CHTO   O11 5476   3.704   8.525   3.144  0.4295 -0.6134  0.4999
   13CHTO    H5 5477   3.730   8.488   3.225  1.0412 -2.4040 -0.5018
   13CHTO    O3 5478   3.521   8.168   3.461 -0.0718  0.4572 -0.0063
   13CHTO    C6 5479   3.418   8.210   3.556 -0.4703  0.5580 -0.3188
   13CHTO   H19 5480   3.341   8.269   3.507 -0.7206 -0.1123 -0.7295
   13CHTO    C8 5481   3.361   8.078   3.621  0.6224 -0.3577 -0.2133
   13CHTO   H21 5482   3.448   8.016   3.646  0.4495  0.2383  1.8917
   13CHTO    O7 5483   3.271   8.013   3.527  0.2416 -0.0489  0.3910
   13CHTO    H2 5484   3.187   8.054   3.527 -1.2790 -2.9849 -0.7449
   13CHTO   C12 5485   3.277   8.114   3.754  0.2320  0.7793  0.3063
   13CHTO   H25 5486   3.182   8.158   3.720 -0.0849  1.4293  1.9809
   13CHTO    N3 5487   3.244   7.989   3.830 -0.3288  0.6094 -0.2341
   13CHTO   H12 5488   3.301   7.911   3.781 -2.3091  0.0896 -1.7834
   13CHTO   H13 5489   3.274   8.008   3.932 -3.2214  0.6504  0.6491
   13CHTO   C15 5490   3.352   8.219   3.836 -0.0124  0.0229 -0.9002
   13CHTO   H28 5491   3.448   8.186   3.878 -0.7083 -0.0112  0.6918
   13CHTO   O10 5492   3.258   8.279   3.935 -0.5013 -0.2365 -0.0231
   13CHTO    H4 5493   3.247   8.230   4.014  0.1589 -2.1188 -1.0821
   13CHTO    O5 5494   3.382   8.331   3.760 -0.4179  0.2520 -0.1701
   13CHTO   C10 5495   3.485   8.306   3.661 -0.2833  0.1386 -0.0856
   13CHTO   H23 5496   3.574   8.256   3.700 -0.2979  0.2523  0.0932
   13CHTO   C17 5497   3.524   8.440   3.596 -0.1502 -0.6779  0.5265
   13CHTO   O12 5498   3.642   8.483   3.664  0.2835 -0.3067  0.0627
   13CHTO    H6 5499   3.676   8.567   3.642 -1.7927  0.9558  1.4763
   14CHTO  H203 5500   5.945   5.205   2.133  1.2251  0.3608 -2.4549
   14CHTO   O82 5501   5.964   5.292   2.162 -0.5658  0.0466 -0.2043
   14CHTO  C123 5502   5.846   5.367   2.199 -0.2127 -0.4526  0.0788
   14CHTO  H227 5503   5.874   5.473   2.208 -1.1608 -0.3845  2.4452
   14CHTO   O77 5504   5.744   5.341   2.096 -0.2691 -0.2959 -0.1232
   14CHTO  C118 5505   5.629   5.426   2.102  0.5308 -0.5577  0.2749
   14CHTO  H222 5506   5.669   5.527   2.088  2.6783 -1.4130  0.1865
   14CHTO  C125 5507   5.537   5.380   1.987 -0.1527  0.2284 -0.3896
   14CHTO   O84 5508   5.569   5.427   1.853 -0.4870 -0.1741 -0.5977
   14CHTO  H205 5509   5.490   5.456   1.811 -0.0679  2.4850  0.3218
   14CHTO  C114 5510   5.557   5.417   2.238 -0.3395  0.5785 -1.0271
   14CHTO  H218 5511   5.493   5.329   2.235  0.3849 -0.0197  0.5075
   14CHTO  C116 5512   5.652   5.404   2.360 -0.1748  0.1249  0.0336
   14CHTO  H220 5513   5.676   5.506   2.395 -1.0403 -0.2881  1.8759
   14CHTO   O79 5514   5.572   5.356   2.469  0.1270  0.4926 -0.0856
   14CHTO  H201 5515   5.527   5.418   2.522  2.4583  0.9180  1.4723
   14CHTO  C120 5516   5.786   5.321   2.332  0.5234  0.1704  0.2893
   14CHTO  H224 5517   5.765   5.212   2.329  2.4407 -0.1827 -1.3090
   14CHTO   N21 5518   5.876   5.345   2.448  0.0113  0.1804  0.7398
   14CHTO  H211 5519   5.913   5.447   2.449  0.9922 -0.1293 -1.3038
   14CHTO  H212 5520   5.964   5.284   2.432  1.0184  1.4853  1.1694
   14CHTO   O75 5521   5.480   5.539   2.240  0.4309  0.1511  0.1494
   14CHTO  C112 5522   5.324   5.520   2.296 -0.3488  0.2535  0.6075
   14CHTO  H216 5523   5.329   5.458   2.386  2.2440 -0.6342 -0.0758
   14CHTO   O73 5524   5.248   5.460   2.192 -0.1316  0.3213 -0.0657
   14CHTO  C113 5525   5.126   5.394   2.244 -0.2706 -0.4191 -0.7161
   14CHTO  H217 5526   5.152   5.326   2.327 -0.9772  0.0707 -0.0761
   14CHTO  C124 5527   5.062   5.297   2.143  0.8735  0.6906  0.3498
   14CHTO   O83 5528   5.147   5.218   2.068  0.3228  0.1424  0.8253
   14CHTO  H204 5529   5.223   5.267   2.044  0.7438 -2.1055 -2.7504
   14CHTO  C109 5530   5.028   5.511   2.280 -0.5981  0.6889 -0.0526
   14CHTO  H213 5531   5.002   5.560   2.185  0.5487  2.6976  0.6350
   14CHTO  C110 5532   5.092   5.622   2.376  0.2156 -0.1612  0.0718
   14CHTO  H214 5533   5.083   5.577   2.475 -0.8685 -0.0847  0.0116
   14CHTO   O78 5534   5.005   5.740   2.384 -0.3006 -0.3136  0.7736
   14CHTO  H200 5535   5.012   5.797   2.310  0.1421 -1.9110 -0.4454
   14CHTO  C111 5536   5.244   5.656   2.330  0.1630  0.6128  0.0836
   14CHTO  H215 5537   5.240   5.713   2.236  1.1813 -1.2774 -1.1381
   14CHTO   N19 5538   5.311   5.737   2.426 -0.1729 -0.7858 -0.4225
   14CHTO  H207 5539   5.290   5.714   2.530  0.7381  0.1883 -0.0152
   14CHTO  H208 5540   5.416   5.748   2.404 -0.5010  2.5414 -0.5615
   14CHTO   O74 5541   4.910   5.457   2.346 -0.4656 -0.8370 -0.2028
   14CHTO  C115 5542   4.768   5.545   2.357 -0.0345  0.7225 -0.2429
   14CHTO  H219 5543   4.748   5.580   2.458 -3.8731 -1.5132 -0.1712
   14CHTO   O76 5544   4.775   5.677   2.280 -0.9619 -0.9163 -0.2499
   14CHTO  C122 5545   4.718   5.675   2.148 -0.2093 -0.1037 -1.3451
   14CHTO  H226 5546   4.781   5.608   2.090  0.7748  1.0186 -1.5958
   14CHTO  C126 5547   4.726   5.812   2.085 -0.1066  0.4116 -0.4422
   14CHTO   O85 5548   4.686   5.806   1.947 -0.1800 -0.0741  0.2281
   14CHTO  H206 5549   4.600   5.770   1.941 -0.4974  0.9772 -2.0205
   14CHTO  C121 5550   4.568   5.623   2.152 -0.0129 -0.8843  0.1833
   14CHTO  H225 5551   4.503   5.713   2.149  1.7012  0.3500 -1.2594
   14CHTO   O81 5552   4.547   5.542   2.041 -0.7571 -0.0263  0.1699
   14CHTO  H202 5553   4.454   5.531   2.034 -0.9530  0.8628  1.2282
   14CHTO  C119 5554   4.532   5.543   2.281 -0.2591  0.6594  0.4834
   14CHTO  H223 5555   4.514   5.607   2.368  0.7310 -0.1548  1.3135
   14CHTO  C117 5556   4.650   5.449   2.310  0.1721 -0.5151 -0.0427
   14CHTO  H221 5557   4.690   5.398   2.222  0.7032 -0.9855  0.4597
   14CHTO   N20 5558   4.619   5.342   2.405 -0.8291 -0.5481  0.3562
   14CHTO  H209 5559   4.566   5.380   2.491  3.7822  2.1406  2.2138
   14CHTO  H210 5560   4.545   5.277   2.360 -1.9412  1.3356 -0.6076
   14CHTO   O80 5561   4.384   5.475   2.263 -0.1926  0.3199 -0.6205
   14CHTO  C103 5562   4.244   5.576   2.235  0.5920 -0.1885 -0.2309
   14CHTO  H190 5563   4.277   5.680   2.226 -0.3999  0.2015  0.5330
   14CHTO  C101 5564   4.158   5.541   2.104 -0.7338 -0.8115 -0.6014
   14CHTO  H188 5565   4.136   5.434   2.109 -0.3876 -0.8623 -0.1632
   14CHTO   O68 5566   4.251   5.563   1.984  0.0970  0.1641 -0.0756
   14CHTO  H168 5567   4.282   5.651   1.985 -1.4696  0.7534 -1.1219
   14CHTO   C99 5568   4.018   5.619   2.095  0.8598 -0.0792  0.0217
   14CHTO  H186 5569   4.034   5.728   2.076  1.0937 -0.1132  0.0206
   14CHTO   N17 5570   3.920   5.561   1.984 -0.1775 -0.0661  0.3701
   14CHTO  H174 5571   3.930   5.454   1.985  0.9646  0.0099 -1.0287
   14CHTO  H175 5572   3.948   5.603   1.889 -4.4781  0.7370 -0.6220
   14CHTO   C97 5573   3.946   5.613   2.236  0.6024  0.0151 -0.3065
   14CHTO  H184 5574   3.897   5.514   2.244  0.5356 -0.1484 -2.4751
   14CHTO   O64 5575   4.032   5.638   2.350 -0.2317  0.1810 -0.2601
   14CHTO  C104 5576   4.156   5.573   2.367  0.5105  0.4740  0.1494
   14CHTO  H191 5577   4.133   5.468   2.384 -2.7319  0.9761 -0.7158
   14CHTO  C108 5578   4.213   5.627   2.495 -0.5547  0.5735 -0.6302
   14CHTO   O71 5579   4.318   5.719   2.469  0.1307  0.0780 -0.6464
   14CHTO  H171 5580   4.356   5.741   2.552  1.8282  0.7897 -1.5878
   14CHTO   O62 5581   3.836   5.710   2.246  0.3098  0.6022  0.3159
   14CHTO   C91 5582   3.748   5.717   2.355  0.2466 -0.8544  0.7141
   14CHTO  H178 5583   3.779   5.650   2.435 -1.2628 -1.3894  0.8683
   14CHTO   C92 5584   3.605   5.671   2.306  0.2179  0.1371  0.2265
   14CHTO  H179 5585   3.611   5.576   2.251  0.6776  0.9046 -1.0980
   14CHTO   O66 5586   3.520   5.635   2.415  0.2439 -0.7745  0.0328
   14CHTO  H166 5587   3.522   5.541   2.420 -0.8673 -0.8351 -0.4698
   14CHTO   C93 5588   3.527   5.778   2.222 -0.6446 -0.0913  0.3038
   14CHTO  H180 5589   3.422   5.752   2.239 -0.8471  0.0440 -0.7155
   14CHTO   N16 5590   3.559   5.773   2.072 -0.1053 -0.5366  0.0519
   14CHTO  H172 5591   3.648   5.719   2.045  0.2064 -1.3464  2.5464
   14CHTO  H173 5592   3.476   5.745   2.009 -0.9511  2.9260 -0.4878
   14CHTO   C94 5593   3.551   5.924   2.279 -0.0115 -0.3428  0.2462
   14CHTO  H181 5594   3.616   5.983   2.214 -2.4637  1.6157 -0.5309
   14CHTO   O61 5595   3.601   5.922   2.413  0.0215 -0.6023 -0.0960
   14CHTO   C95 5596   3.735   5.864   2.410 -0.3197 -0.0871 -0.0327
   14CHTO  H182 5597   3.802   5.927   2.352 -0.4891  0.4271  0.3290
   14CHTO  C106 5598   3.777   5.874   2.549  0.6427 -0.0974 -0.7059
   14CHTO   O69 5599   3.911   5.840   2.575 -0.3101  0.4736  0.5520
   14CHTO  H169 5600   3.929   5.850   2.666  4.8884 -0.6757 -0.1567
   14CHTO   O63 5601   3.407   6.001   2.283  0.2710  0.4316  0.2081
   14CHTO   C96 5602   3.409   6.152   2.238 -0.3796 -0.0582  0.3100
   14CHTO  H183 5603   3.488   6.178   2.166  0.8749  3.2999  2.7602
   14CHTO   C98 5604   3.445   6.236   2.361  0.1616  0.5734 -0.6123
   14CHTO  H185 5605   3.382   6.210   2.447  2.0993 -1.2557  0.2860
   14CHTO   O67 5606   3.577   6.193   2.415  0.0273  0.4486  0.0704
   14CHTO  H167 5607   3.617   6.250   2.478  0.2144 -0.8762  1.2027
   14CHTO  C102 5608   3.433   6.391   2.332  0.1626 -0.4412  0.3199
   14CHTO  H189 5609   3.517   6.411   2.265 -0.0036 -0.6467  0.0509
   14CHTO   N18 5610   3.446   6.476   2.454 -0.4558  0.7329 -0.2323
   14CHTO  H176 5611   3.536   6.536   2.451  0.0091  0.2342  2.2856
   14CHTO  H177 5612   3.359   6.532   2.486 -2.0220 -1.5312 -0.3918
   14CHTO  C105 5613   3.294   6.419   2.258 -0.0162  0.3246 -0.0397
   14CHTO  H192 5614   3.209   6.425   2.326  0.7543 -0.7913  1.0528
   14CHTO   O65 5615   3.258   6.328   2.157  0.0024 -0.0193 -0.1282
   14CHTO  C100 5616   3.269   6.192   2.183 -0.1555 -0.1856 -0.2626
   14CHTO  H187 5617   3.191   6.174   2.259 -1.0440  1.7511 -0.6883
   14CHTO  C107 5618   3.222   6.125   2.059  0.4294  0.1318  0.3809
   14CHTO   O70 5619   3.177   5.992   2.082 -0.0361  0.1233  0.5737
   14CHTO  H170 5620   3.099   6.000   2.134 -1.5295 -4.0252 -0.8423
   14CHTO   O57 5621   3.321   6.567   2.196  0.5104  0.0605  0.2765
   14CHTO   C85 5622   3.239   6.617   2.094 -0.2613  0.1724 -0.0270
   14CHTO  H157 5623   3.151   6.551   2.079 -1.2859  1.0768  1.7356
   14CHTO   C83 5624   3.316   6.612   1.956  0.7307  1.2493 -0.0402
   14CHTO  H155 5625   3.311   6.507   1.926  2.0021  1.3262 -0.5574
   14CHTO   O56 5626   3.445   6.638   1.983  0.0238  0.4432  0.0102
   14CHTO  H135 5627   3.453   6.729   1.962 -4.1198  0.7117 -0.8243
   14CHTO   C81 5628   3.242   6.695   1.851  0.7135  0.8444 -0.0961
   14CHTO  H153 5629   3.145   6.650   1.830  0.8858 -0.5155  1.8248
   14CHTO   N14 5630   3.309   6.680   1.725 -0.8007 -0.4496  0.7084
   14CHTO  H141 5631   3.398   6.738   1.736 -1.8827  1.3551  0.0038
   14CHTO  H142 5632   3.328   6.575   1.713 -1.2733 -0.5202  0.5748
   14CHTO   C79 5633   3.224   6.842   1.898  0.3633  0.0177 -0.1198
   14CHTO  H151 5634   3.176   6.894   1.816 -0.5920  0.7565  0.8946
   14CHTO   O52 5635   3.145   6.852   2.019 -0.4823  0.0938 -0.2737
   14CHTO   C86 5636   3.189   6.772   2.125  0.8268  0.4057 -1.2429
   14CHTO  H158 5637   3.276   6.830   2.162  0.1959  0.3313  0.4098
   14CHTO   C90 5638   3.083   6.778   2.241 -0.3591  0.1826 -0.3107
   14CHTO   O60 5639   2.952   6.740   2.201 -0.1800  0.2791 -0.5688
   14CHTO  H138 5640   2.911   6.679   2.259  3.2772  0.2819  2.0365
   14CHTO   O50 5641   3.344   6.916   1.909  0.0215  0.3648  0.2550
   14CHTO   C73 5642   3.376   7.055   1.925  0.0548  0.5736 -0.0236
   14CHTO  H145 5643   3.307   7.103   1.996  0.3105 -0.3070  0.8344
   14CHTO   C74 5644   3.371   7.127   1.789  0.4350 -0.0635  0.2899
   14CHTO  H146 5645   3.269   7.110   1.750  0.6147 -0.0454 -0.1836
   14CHTO   O54 5646   3.381   7.269   1.822 -0.0385 -0.3508  0.4824
   14CHTO  H133 5647   3.305   7.296   1.872 -1.7296  0.1724 -2.2824
   14CHTO   C75 5648   3.475   7.071   1.690 -0.2376 -0.1107  0.3127
   14CHTO  H147 5649   3.451   6.965   1.674  1.6392 -0.1299 -2.6641
   14CHTO   N13 5650   3.478   7.134   1.563 -0.8073 -0.3330 -0.0217
   14CHTO  H139 5651   3.571   7.187   1.549 -0.6073 -1.2924 -2.7802
   14CHTO  H140 5652   3.476   7.051   1.494  0.7122  1.2109 -1.9863
   14CHTO   C76 5653   3.620   7.076   1.763  0.7246 -0.1572 -0.1485
   14CHTO  H148 5654   3.646   7.181   1.766  1.3115 -0.2727 -1.0545
   14CHTO   O49 5655   3.624   7.017   1.894  0.2782  0.0050  0.4186
   14CHTO   C77 5656   3.519   7.067   1.984 -0.4826 -0.7780 -0.5522
   14CHTO  H149 5657   3.538   7.169   2.018 -3.1949 -0.9405  1.6937
   14CHTO   C88 5658   3.529   6.999   2.119  0.7070 -0.2635 -0.2478
   14CHTO   O58 5659   3.641   7.035   2.181  0.2491  0.3421 -0.4264
   14CHTO  H136 5660   3.648   6.995   2.265 -1.0224 -0.9344 -0.8998
   14CHTO   O51 5661   3.723   6.999   1.676 -0.2122 -0.2919 -0.0086
   14CHTO   C78 5662   3.883   7.003   1.722  0.3680  0.3995 -0.4434
   14CHTO  H150 5663   3.894   7.041   1.826 -1.2764  2.2876 -0.9429
   14CHTO   C80 5664   3.958   7.087   1.623 -0.7366 -0.2538 -0.1726
   14CHTO  H152 5665   3.925   7.055   1.522  2.2049  1.7456 -1.8584
   14CHTO   O55 5666   3.911   7.224   1.640  0.1359 -0.3992  0.2794
   14CHTO  H134 5667   3.826   7.242   1.606  0.5621  3.1169  0.8860
   14CHTO   C84 5668   4.119   7.081   1.645  0.5611 -0.4861  0.1103
   14CHTO  H156 5669   4.143   7.124   1.742 -1.9834 -1.3398  1.1815
   14CHTO   N15 5670   4.193   7.158   1.542  0.0282  0.7355  0.7070
   14CHTO  H143 5671   4.165   7.261   1.537  0.0205  0.8121  1.9921
   14CHTO  H144 5672   4.197   7.111   1.446 -0.4414  1.3297  0.3955
   14CHTO   C87 5673   4.171   6.940   1.663 -0.6050  0.6756 -0.0921
   14CHTO  H159 5674   4.169   6.884   1.570 -1.2896 -0.4219  0.5628
   14CHTO   O53 5675   4.078   6.861   1.763  0.1128 -0.1620 -0.1328
   14CHTO   C82 5676   3.943   6.858   1.715 -0.1684  0.7335 -0.1614
   14CHTO  H154 5677   3.930   6.814   1.616 -0.5671 -1.2115  0.7279
   14CHTO   C89 5678   3.866   6.766   1.814  0.2570 -0.1610  0.1170
   14CHTO   O59 5679   3.756   6.701   1.752  0.7409  0.5532  0.2793
   14CHTO  H137 5680   3.769   6.653   1.672 -2.1009 -0.7894  0.5291
   14CHTO   O45 5681   4.337   6.954   1.737 -0.0767  0.1808  0.0895
   14CHTO   C67 5682   4.409   6.832   1.746 -0.0578  0.1470 -0.1654
   14CHTO  H124 5683   4.355   6.771   1.818  2.1055  0.1628  1.5373
   14CHTO   C65 5684   4.431   6.750   1.619 -0.1681  0.1644 -0.4191
   14CHTO  H122 5685   4.331   6.751   1.576 -0.1015  2.7447 -0.5875
   14CHTO   O44 5686   4.467   6.614   1.652  0.0064 -0.3494 -0.5114
   14CHTO  H102 5687   4.534   6.589   1.592 -2.5439 -0.9168 -3.2561
   14CHTO   C63 5688   4.521   6.819   1.515  0.6522  0.1520  1.3564
   14CHTO  H120 5689   4.484   6.919   1.491 -1.1684 -0.3979  1.7943
   14CHTO   N11 5690   4.504   6.773   1.372  0.2407  0.3925  0.6974
   14CHTO  H108 5691   4.397   6.765   1.363  0.3259  1.6484 -1.8970
   14CHTO  H109 5692   4.545   6.839   1.299 -0.9512  1.2002  0.7452
   14CHTO   C61 5693   4.669   6.830   1.575 -0.6027 -0.2726  0.1259
   14CHTO  H118 5694   4.724   6.896   1.507 -0.1008 -0.1858  0.6196
   14CHTO   O40 5695   4.656   6.899   1.707  0.3285  0.3975 -0.5169
   14CHTO   C68 5696   4.556   6.866   1.813  0.4494 -0.0517 -0.0078
   14CHTO  H125 5697   4.548   6.956   1.878  1.3800 -0.3009  0.4523
   14CHTO   C72 5698   4.610   6.750   1.904 -0.0511  0.4312 -0.1023
   14CHTO   O48 5699   4.741   6.760   1.958  0.3112  0.0015  0.2037
   14CHTO  H105 5700   4.805   6.730   1.895  0.4511 -1.2952  0.9423
   14CHTO   O38 5701   4.740   6.708   1.595 -0.0564  0.2883 -0.7757
   14CHTO   C55 5702   4.869   6.686   1.540 -0.4934 -0.1811  0.7824
   14CHTO  H112 5703   4.890   6.770   1.472 -1.9464 -1.3663 -1.1784
   14CHTO   C56 5704   4.866   6.547   1.462  0.0676  0.2522 -0.3101
   14CHTO  H113 5705   4.816   6.476   1.528  0.6523  1.7644  1.8072
   14CHTO   O42 5706   4.785   6.564   1.347  0.5568  0.3325  0.3609
   14CHTO  H100 5707   4.705   6.603   1.376  1.3527  0.4003  2.5938
   14CHTO   C57 5708   5.011   6.497   1.416 -0.3201 -0.4219  0.2382
   14CHTO  H114 5709   5.043   6.566   1.338 -2.2659  0.0643 -0.1580
   14CHTO   N10 5710   5.007   6.364   1.351 -0.2061  0.6037 -1.2507
   14CHTO  H106 5711   5.099   6.309   1.366  0.5114  2.2719  0.6762
   14CHTO  H107 5712   4.926   6.319   1.408  1.1904  2.5650  2.5007
   14CHTO   C58 5713   5.107   6.510   1.538  1.0924  0.5095  0.5316
   14CHTO  H115 5714   5.089   6.431   1.614 -1.5779  1.0932  0.5721
   14CHTO   O37 5715   5.102   6.645   1.596 -0.2839  0.1258  0.9841
   14CHTO   C59 5716   4.975   6.684   1.654 -0.3870  0.3002 -0.2079
   14CHTO  H116 5717   4.943   6.609   1.726 -1.6630 -0.9507 -2.0273
   14CHTO   C70 5718   4.991   6.819   1.727  0.4336 -0.3915 -0.6174
   14CHTO   O46 5719   5.058   6.828   1.854 -0.2332 -0.5555 -0.2618
   14CHTO  H103 5720   5.148   6.804   1.850 -0.3467 -1.0636  0.1672
   14CHTO   O39 5721   5.268   6.506   1.483 -0.0061  0.3058 -0.2482
   14CHTO   C60 5722   5.348   6.450   1.594  0.2207  0.0789  0.0023
   14CHTO  H117 5723   5.286   6.472   1.680  0.4773  2.6975 -0.4591
   14CHTO   C62 5724   5.365   6.291   1.597  0.0401  0.1358  0.4215
   14CHTO  H119 5725   5.264   6.248   1.617 -0.7138  2.2375  1.2674
   14CHTO   O43 5726   5.383   6.251   1.460 -0.2836 -0.2005  0.6823
   14CHTO  H101 5727   5.374   6.158   1.451 -0.8905  0.0536 -1.4477
   14CHTO   C66 5728   5.469   6.236   1.710 -0.4370 -0.4730 -0.0120
   14CHTO  H123 5729   5.432   6.258   1.810 -1.6876  2.7266 -1.1293
   14CHTO   N12 5730   5.496   6.095   1.713  0.3581  0.3997 -0.4011
   14CHTO  H110 5731   5.400   6.048   1.729  0.2975  0.0946 -1.6186
   14CHTO  H111 5732   5.541   6.059   1.621  1.7789 -2.5523  1.3498
   14CHTO   C69 5733   5.604   6.315   1.702 -0.3123 -0.4130  0.0503
   14CHTO  H126 5734   5.657   6.310   1.605 -1.2597  2.1448 -0.6540
   14CHTO   O41 5735   5.573   6.457   1.723 -0.1074 -0.2951 -0.0187
   14CHTO   C64 5736   5.485   6.523   1.618  0.6487  0.3332  1.0757
   14CHTO  H121 5737   5.544   6.522   1.524 -0.5227  0.1562  0.3462
   14CHTO   C71 5738   5.457   6.666   1.656 -0.0021  0.4049 -0.0565
   14CHTO   O47 5739   5.412   6.751   1.546  0.1319  0.4057 -0.7925
   14CHTO  H104 5740   5.360   6.818   1.585 -0.7933 -1.4699  1.3375
   14CHTO   O34 5741   5.708   6.274   1.821 -0.2274 -0.1172 -0.1908
   14CHTO   C49 5742   5.851   6.275   1.824 -0.0118  0.0096 -0.5257
   14CHTO   H91 5743   5.866   6.183   1.766  1.4333  1.7526 -2.9970
   14CHTO   C47 5744   5.903   6.268   1.971  0.8680  0.4541  0.2296
   14CHTO   H89 5745   6.012   6.249   1.965  0.4731 -1.3383 -1.9782
   14CHTO   O33 5746   5.851   6.151   2.033 -0.4601 -0.7210 -0.2130
   14CHTO   H70 5747   5.761   6.162   2.059  0.5690  0.4557  3.0812
   14CHTO   C45 5748   5.873   6.399   2.051 -0.4356  1.2018  0.1670
   14CHTO   H87 5749   5.773   6.399   2.098 -1.2554 -1.9102 -1.4049
   14CHTO    N8 5750   5.975   6.425   2.158 -0.2118 -0.4348  0.3869
   14CHTO   H75 5751   6.068   6.440   2.106 -1.2277  0.2098 -1.2855
   14CHTO   H76 5752   5.983   6.332   2.212  0.3071 -0.2991  0.5484
   14CHTO   C43 5753   5.845   6.514   1.948  0.7067  0.1107  0.1293
   14CHTO   H85 5754   5.743   6.502   1.912  0.2153  0.9073  1.2380
   14CHTO   O29 5755   5.940   6.513   1.841 -0.1521  0.4399 -0.0661
   14CHTO   C50 5756   5.911   6.399   1.757  0.8991  0.4367 -0.2497
   14CHTO   H92 5757   5.842   6.442   1.683  1.9408 -0.9892 -2.1014
   14CHTO   C54 5758   6.018   6.361   1.658  0.0358 -0.2891  0.5378
   14CHTO   O36 5759   6.107   6.263   1.717 -0.3302 -0.2052  0.1488
   14CHTO   H72 5760   6.176   6.305   1.766 -0.6931  1.5860 -0.8349
   14CHTO   O27 5761   5.846   6.641   2.011  0.2401  0.0348 -0.2900
   14CHTO   C37 5762   5.780   6.764   2.026  0.4291 -0.1854  0.6911
   14CHTO   H79 5763   5.844   6.839   2.075 -0.5191  2.3056 -1.7469
   14CHTO   C38 5764   5.743   6.833   1.887  0.5726 -0.9107 -0.4634
   14CHTO   H80 5765   5.684   6.765   1.825  1.4320  0.6467 -3.0491
   14CHTO   O31 5766   5.867   6.865   1.822 -0.2729 -0.0848  0.2628
   14CHTO   H68 5767   5.907   6.790   1.780 -2.6449 -1.5729  0.5765
   14CHTO   C39 5768   5.656   6.964   1.916  0.3024 -0.2062 -0.4820
   14CHTO   H81 5769   5.727   7.026   1.969  0.1541 -3.1825  3.4012
   14CHTO    N7 5770   5.603   7.032   1.787 -0.0343  0.2936  0.2574
   14CHTO   H73 5771   5.674   7.097   1.738 -0.5765  1.9562  1.5918
   14CHTO   H74 5772   5.566   6.956   1.721  0.8077 -0.8177  1.0423
   14CHTO   C40 5773   5.540   6.937   2.017 -0.7366 -0.0332  0.2301
   14CHTO   H82 5774   5.451   6.913   1.957 -3.0372  1.2272  3.0233
   14CHTO   O26 5775   5.562   6.848   2.132  0.2421  0.2950 -0.0880
   14CHTO   C41 5776   5.646   6.735   2.109 -0.3323  0.4624 -0.2416
   14CHTO   H83 5777   5.590   6.656   2.056  1.3136 -0.1277 -1.1399
   14CHTO   C52 5778   5.684   6.689   2.251  0.1196  0.1765  0.5645
   14CHTO   O35 5779   5.570   6.642   2.324 -0.2214 -0.2223 -0.5712
   14CHTO   H71 5780   5.531   6.574   2.271 -0.5773 -0.2047 -0.3359
   14CHTO   O28 5781   5.503   7.064   2.079  0.3050  0.4841  0.6759
   14CHTO   C42 5782   5.367   7.072   2.145 -0.3215  0.0878 -0.0010
   14CHTO   H84 5783   5.373   7.170   2.193  0.0742  0.8558 -1.5863
   14CHTO   C44 5784   5.330   6.961   2.256  0.0840  0.3299  0.8873
   14CHTO   H86 5785   5.311   6.868   2.202  0.6074  1.6615 -1.6289
   14CHTO   O32 5786   5.444   6.944   2.344  0.0968  0.1233  0.1349
   14CHTO   H69 5787   5.479   6.857   2.340 -0.7349 -0.1345 -2.3887
   14CHTO   C48 5788   5.195   7.006   2.327 -0.9485  0.5641 -0.0831
   14CHTO   H90 5789   5.200   7.111   2.356  0.8486  0.1712  1.0921
   14CHTO    N9 5790   5.147   6.925   2.444  0.0858 -0.1757 -0.1365
   14CHTO   H77 5791   5.058   6.968   2.489 -1.1423 -0.8684 -1.8823
   14CHTO   H78 5792   5.233   6.929   2.510 -0.1773  0.6286  0.1668
   14CHTO   C51 5793   5.078   7.009   2.219  0.6054  0.5220 -0.3684
   14CHTO   H93 5794   5.072   6.909   2.175  2.1266  0.7322 -1.0945
   14CHTO   O30 5795   5.117   7.107   2.121  0.5106  0.2207  0.2548
   14CHTO   C46 5796   5.248   7.081   2.043  0.7903  0.2199 -0.3406
   14CHTO   H88 5797   5.236   6.985   1.992  0.0617 -1.6590  3.1916
   14CHTO   C53 5798   5.260   7.194   1.940  0.1599 -0.7612  0.6884
   14CHTO   O72 5799   5.150   7.176   1.846 -0.5401  0.5943 -0.2243
   14CHTO  H199 5800   5.149   7.250   1.789  0.2575  1.3629  0.7412
   14CHTO   O22 5801   4.954   7.056   2.273  0.2857 -0.1683 -0.2805
   14CHTO   C31 5802   4.822   7.000   2.222 -0.6122 -0.3997 -0.1904
   14CHTO   H59 5803   4.847   6.931   2.138  1.2546 -0.0249  0.0156
   14CHTO   C29 5804   4.735   6.916   2.322 -0.5842  0.1833  0.0418
   14CHTO   H57 5805   4.726   6.976   2.414 -1.4046  0.4463 -0.2081
   14CHTO   O21 5806   4.816   6.804   2.358 -0.5640  0.4724 -0.0006
   14CHTO   H37 5807   4.800   6.732   2.300  0.9240 -0.5534  0.8053
   14CHTO   C27 5808   4.590   6.876   2.260 -0.1031  0.6242  0.1535
   14CHTO   H55 5809   4.613   6.811   2.175 -1.0875  0.0993  0.2840
   14CHTO    N5 5810   4.499   6.805   2.353 -0.5547 -0.4579  0.4290
   14CHTO   H43 5811   4.470   6.711   2.310 -1.4808  1.4004 -3.2104
   14CHTO   H44 5812   4.544   6.800   2.452  2.5761  0.9482 -0.8385
   14CHTO   C25 5813   4.527   7.002   2.191  0.2622 -0.0985 -0.1564
   14CHTO   H53 5814   4.489   7.074   2.265  1.3943  1.7918 -1.3822
   14CHTO   O17 5815   4.618   7.049   2.097 -0.3183  0.3743 -0.0427
   14CHTO   C32 5816   4.735   7.109   2.153 -0.0790 -0.1526 -0.7261
   14CHTO   H60 5817   4.711   7.194   2.218  2.0612  0.5737 -0.8505
   14CHTO   C36 5818   4.816   7.172   2.034 -0.6110 -0.0446 -0.1068
   14CHTO   O25 5819   4.855   7.086   1.923 -0.0555  0.5956 -0.4038
   14CHTO   H40 5820   4.781   7.062   1.872 -1.5137  2.3287  0.8124
   14CHTO   O15 5821   4.405   6.961   2.118  0.2906  0.4579  0.2253
   14CHTO   C19 5822   4.269   7.002   2.091  0.2881 -1.4968  0.2974
   14CHTO   H47 5823   4.269   6.989   1.982  0.0890  0.7324 -0.0089
   14CHTO   C20 5824   4.159   6.909   2.157  1.3318 -0.1537  0.4322
   14CHTO   H48 5825   4.179   6.892   2.264  0.2599 -1.2807  0.4537
   14CHTO   O19 5826   4.183   6.784   2.087  0.1827  0.0791  0.2870
   14CHTO   H35 5827   4.261   6.741   2.116  0.1923 -0.4979 -0.5768
   14CHTO   C21 5828   4.016   6.955   2.130  0.8315 -0.5009  0.6389
   14CHTO   H49 5829   4.000   6.942   2.023  0.2423  1.7662  0.4360
   14CHTO    N4 5830   3.918   6.878   2.211 -0.6987 -0.1502  0.0684
   14CHTO   H41 5831   3.824   6.881   2.158 -0.2286 -0.0253 -0.7628
   14CHTO   H42 5832   3.903   6.911   2.313 -0.9371 -1.5901  0.5117
   14CHTO   C22 5833   4.010   7.106   2.160  0.9012 -0.5469 -0.3014
   14CHTO   H50 5834   4.028   7.120   2.267  1.0651 -3.6193  0.1047
   14CHTO   O14 5835   4.105   7.183   2.094 -0.0315  0.1292 -0.3643
   14CHTO   C23 5836   4.239   7.154   2.123  0.6075 -0.4994  0.0279
   14CHTO   H51 5837   4.248   7.178   2.231  2.5078 -0.6445 -0.0733
   14CHTO   C34 5838   4.338   7.242   2.036  0.3808 -0.7263  0.1216
   14CHTO   O23 5839   4.319   7.249   1.891 -0.0434  0.5869  0.3357
   14CHTO   H38 5840   4.394   7.206   1.855 -1.2958 -3.0151  1.8088
   14CHTO   O16 5841   3.878   7.156   2.114  0.0122  0.2199  0.1065
   14CHTO   C24 5842   3.830   7.314   2.138  0.3347  0.2711 -0.6300
   14CHTO   H52 5843   3.723   7.320   2.156  0.6992  2.5567  0.9682
   14CHTO   C26 5844   3.856   7.392   2.003 -0.0981  0.0565 -0.7359
   14CHTO   H54 5845   3.948   7.354   1.954  0.1654  1.0772 -1.0338
   14CHTO   O20 5846   3.744   7.364   1.910  0.1369  0.2743 -0.6184
   14CHTO   H36 5847   3.698   7.440   1.881 -2.1444 -0.8319  0.0397
   14CHTO   C30 5848   3.875   7.548   2.015  0.3854  0.2200 -0.3428
   14CHTO   H58 5849   3.777   7.594   2.038 -0.2151 -1.3602  0.3468
   14CHTO    N6 5850   3.922   7.605   1.885  0.3387  0.2110  0.1899
   14CHTO   H45 5851   3.945   7.710   1.898  1.7107  0.3217 -2.6657
   14CHTO   H46 5852   4.000   7.549   1.834  0.2496 -1.3324  1.7145
   14CHTO   C33 5853   3.963   7.580   2.136  0.2905  0.2472  0.8646
   14CHTO   H61 5854   4.060   7.530   2.123 -0.5671 -1.6363  1.5884
   14CHTO   O18 5855   3.893   7.522   2.246  0.6547  0.1981 -0.0390
   14CHTO   C28 5856   3.902   7.378   2.262 -0.1507 -0.3719 -0.3461
   14CHTO   H56 5857   4.006   7.345   2.265 -0.1742 -0.3291  1.1805
   14CHTO   C35 5858   3.831   7.337   2.390 -0.2856 -0.0147  0.2705
   14CHTO   O24 5859   3.902   7.375   2.505 -0.2851  0.3485  0.1792
   14CHTO   H39 5860   3.978   7.322   2.520  0.3359  1.2776  0.3503
   14CHTO    O9 5861   3.990   7.718   2.160 -0.3421  0.1577 -0.5759
   14CHTO   C13 5862   4.109   7.745   2.255  0.4337  0.2197  0.1557
   14CHTO   H26 5863   4.147   7.644   2.282 -1.2914 -0.6900 -0.7660
   14CHTO   C11 5864   4.062   7.825   2.380  0.0696  0.0142  0.4914
   14CHTO   H24 5865   3.989   7.769   2.441 -0.0325  0.7913  1.0995
   14CHTO    O8 5866   3.992   7.946   2.343  0.8548 -0.4487 -0.4107
   14CHTO    H3 5867   3.903   7.947   2.373  0.5570 -1.5095 -1.2390
   14CHTO    C9 5868   4.187   7.846   2.469  0.5702  0.7808 -0.2760
   14CHTO   H22 5869   4.220   7.743   2.493  0.5577  0.7911 -0.2138
   14CHTO    N2 5870   4.150   7.905   2.603 -0.2963 -0.0606  0.2245
   14CHTO   H10 5871   4.194   7.857   2.689 -0.0079  0.0923  0.1606
   14CHTO   H11 5872   4.170   8.011   2.607 -0.6004  0.0407 -0.7204
   14CHTO    C7 5873   4.295   7.924   2.389  0.9404 -0.3176 -0.8013
   14CHTO   H20 5874   4.382   7.916   2.457  0.6432  1.0229 -0.2431
   14CHTO    O4 5875   4.334   7.873   2.262 -0.2602 -0.0898  0.3388
   14CHTO   C14 5876   4.234   7.821   2.178  0.7464  0.0059  0.2348
   14CHTO   H27 5877   4.294   7.750   2.118  1.1415  3.2237 -3.3915
   14CHTO   C18 5878   4.197   7.935   2.078  1.1090 -0.5445  0.0429
   14CHTO   O13 5879   4.102   7.907   1.974 -0.4023 -0.3408  0.8374
   14CHTO    H7 5880   4.017   7.919   2.011  0.0631  0.7465  1.5693
   14CHTO    O2 5881   4.258   8.087   2.378 -0.7529  0.3004 -0.2586
   14CHTO    C1 5882   4.354   8.161   2.300  0.4259 -0.7334  0.2093
   14CHTO   H14 5883   4.328   8.159   2.192 -0.0288  1.3023  0.2406
   14CHTO    C2 5884   4.517   8.143   2.327  0.3053 -0.5835  0.7138
   14CHTO   H15 5885   4.530   8.150   2.436 -1.5318  0.7404  0.8685
   14CHTO    O6 5886   4.572   8.019   2.277 -0.0780 -0.1377 -0.5491
   14CHTO    H1 5887   4.526   7.946   2.316 -0.8053  1.7103  2.1737
   14CHTO    C3 5888   4.592   8.266   2.260 -1.2529  0.0823 -0.9754
   14CHTO   H16 5889   4.596   8.257   2.150 -1.1258 -1.2254 -0.8809
   14CHTO    N1 5890   4.738   8.266   2.303 -0.0989  0.1521 -0.1864
   14CHTO    H8 5891   4.768   8.176   2.354  1.2150  1.0551  0.6767
   14CHTO    H9 5892   4.774   8.356   2.352 -1.0794  0.1106  0.6224
   14CHTO    C4 5893   4.525   8.403   2.290 -0.7079  0.4264  0.0838
   14CHTO   H17 5894   4.539   8.431   2.395 -2.8337 -1.1229  0.8216
   14CHTO    O1 5895   4.383   8.405   2.262 -0.4017 -0.3270 -0.0917
   14CHTO    C5 5896   4.313   8.308   2.333  0.0631 -0.0773 -0.4786
   14CHTO   H18 5897   4.334   8.313   2.440 -1.0156 -0.9589 -0.2153
   14CHTO   C16 5898   4.161   8.336   2.311  0.0469  0.1306  0.2211
   14CHTO   O11 5899   4.127   8.452   2.388 -0.1121 -0.4701  0.1455
   14CHTO    H5 5900   4.115   8.418   2.475 -2.1840 -0.7197 -0.2020
   14CHTO    O3 5901   4.583   8.514   2.217  0.6266 -0.0221  0.4876
   14CHTO    C6 5902   4.596   8.638   2.297 -0.1103  0.6049  0.1611
   14CHTO   H19 5903   4.521   8.644   2.376 -0.3514 -0.8093  0.0499
   14CHTO    C8 5904   4.734   8.658   2.374 -0.0685  0.7007  0.3388
   14CHTO   H21 5905   4.818   8.649   2.305  1.2899 -2.8031  2.3546
   14CHTO    O7 5906   4.757   8.547   2.464  0.1248  0.1120  0.1508
   14CHTO    H2 5907   4.730   8.465   2.426 -0.7776 -0.9899  3.0341
   14CHTO   C12 5908   4.723   8.791   2.454  0.3959 -0.3543 -0.3675
   14CHTO   H25 5909   4.644   8.762   2.525  0.0207  0.2135 -0.5494
   14CHTO    N3 5910   4.849   8.817   2.524 -0.5298 -0.4451  0.1938
   14CHTO   H12 5911   4.924   8.745   2.495 -1.4273 -1.2179 -0.2298
   14CHTO   H13 5912   4.833   8.817   2.630 -4.1530  1.6653 -0.2513
   14CHTO   C15 5913   4.677   8.906   2.360  0.6915 -0.4287 -0.3539
   14CHTO   H28 5914   4.757   8.939   2.293  1.5273 -0.3167  0.6719
   14CHTO   O10 5915   4.636   9.034   2.442  0.7415  0.6114 -0.0728
   14CHTO    H4 5916   4.715   9.084   2.450  0.0970  1.5254  0.5646
   14CHTO    O5 5917   4.559   8.878   2.281  0.1716  0.8499 -0.2982
   14CHTO   C10 5918   4.573   8.755   2.207  0.3961 -0.1966 -0.7873
   14CHTO   H23 5919   4.661   8.766   2.142  1.2182 -0.6466  0.2403
   14CHTO   C17 5920   4.456   8.749   2.110  0.3784  0.6203 -0.4752
   14CHTO   O12 5921   4.328   8.717   2.165 -0.4904  0.4833 -1.0680
   14CHTO    H6 5922   4.255   8.718   2.106 -0.0619  1.2494 -1.5930
   15CHTO  H203 5923   5.194   5.973   1.827 -1.8424 -1.3432 -1.0529
   15CHTO   O82 5924   5.239   5.898   1.861 -0.0337  0.5816  0.8929
   15CHTO  C123 5925   5.194   5.793   1.776  0.0616 -0.6163 -0.8777
   15CHTO  H227 5926   5.103   5.826   1.723 -1.3191 -0.4826  1.4996
   15CHTO   O77 5927   5.297   5.790   1.670  0.3993 -0.4820 -0.0562
   15CHTO  C118 5928   5.287   5.680   1.581  0.1565 -0.1957  0.2670
   15CHTO  H222 5929   5.201   5.688   1.514 -0.5797  0.4150  1.2787
   15CHTO  C125 5930   5.417   5.688   1.497  0.1196 -0.0366 -0.1329
   15CHTO   O84 5931   5.416   5.795   1.398  0.5551  0.3214 -0.6028
   15CHTO  H205 5932   5.382   5.873   1.438 -1.4240 -0.9756  0.2681
   15CHTO  C114 5933   5.286   5.544   1.658 -0.1441 -0.0141 -0.3478
   15CHTO  H218 5934   5.375   5.535   1.721 -0.2359 -1.1402 -0.3756
   15CHTO  C116 5935   5.162   5.543   1.759 -0.6073 -0.3261 -0.4791
   15CHTO  H220 5936   5.069   5.544   1.699 -0.8974  0.9064 -0.0053
   15CHTO   O79 5937   5.172   5.416   1.830 -0.5308  0.0094  0.2949
   15CHTO  H201 5938   5.084   5.392   1.852 -0.3339 -2.2461 -1.1882
   15CHTO  C120 5939   5.170   5.662   1.857 -0.4469 -0.7065  0.1115
   15CHTO  H224 5940   5.259   5.639   1.920 -0.3573  0.0451  0.2698
   15CHTO   N21 5941   5.058   5.672   1.955 -0.4880 -0.0104  0.1543
   15CHTO  H211 5942   4.990   5.748   1.920  0.3632  1.1199  0.9079
   15CHTO  H212 5943   5.007   5.578   1.972 -1.6781  0.6964  0.5558
   15CHTO   O75 5944   5.271   5.441   1.559 -0.1578  0.2557  0.0222
   15CHTO  C112 5945   5.356   5.294   1.610 -0.0764 -0.2828 -0.5797
   15CHTO  H216 5946   5.357   5.273   1.718  0.4125  0.1827 -0.4894
   15CHTO   O73 5947   5.487   5.302   1.553  0.4644  0.1291  0.0586
   15CHTO  C113 5948   5.572   5.188   1.587  0.9220 -0.7276  0.4669
   15CHTO  H217 5949   5.574   5.194   1.698 -1.4309 -1.2343  0.5669
   15CHTO  C124 5950   5.711   5.223   1.535  0.5810 -0.0585 -0.4390
   15CHTO   O83 5951   5.769   5.326   1.609 -0.2406  0.1304 -0.2416
   15CHTO  H204 5952   5.784   5.290   1.694 -0.2626 -1.4379 -0.8894
   15CHTO  C109 5953   5.511   5.053   1.535 -0.0056 -0.4963  0.4392
   15CHTO  H213 5954   5.519   5.054   1.426  0.4886 -1.7304  0.4438
   15CHTO  C110 5955   5.358   5.044   1.578 -0.2422  0.0147  0.0703
   15CHTO  H214 5956   5.350   5.022   1.684 -1.5510 -1.3591 -0.3007
   15CHTO   O78 5957   5.307   4.921   1.522 -0.2300  0.2429 -0.6721
   15CHTO  H200 5958   5.256   4.877   1.589  2.0300 -0.4840  0.6123
   15CHTO  C111 5959   5.282   5.176   1.535 -0.1778  0.0989  0.1578
   15CHTO  H215 5960   5.296   5.194   1.427 -2.4899 -1.8214 -0.4970
   15CHTO   N19 5961   5.128   5.173   1.557 -0.4518  0.0244 -0.2329
   15CHTO  H207 5962   5.097   5.266   1.603  1.4200  1.4503 -1.7888
   15CHTO  H208 5963   5.082   5.162   1.460 -1.1307 -0.9846  0.1945
   15CHTO   O74 5964   5.598   4.947   1.579 -0.1584 -0.1100 -0.1657
   15CHTO  C115 5965   5.639   4.841   1.457  0.0116  0.0028 -0.1221
   15CHTO  H219 5966   5.563   4.834   1.379 -0.1944  2.0117 -0.1117
   15CHTO   O76 5967   5.777   4.896   1.374 -0.5050 -0.3513  0.3867
   15CHTO  C122 5968   5.894   4.870   1.442  0.0481  0.3606  0.8399
   15CHTO  H226 5969   5.898   4.906   1.545  0.9918  0.8025  0.6523
   15CHTO  C126 5970   6.010   4.935   1.374 -0.3672  0.1670  0.5423
   15CHTO   O85 5971   6.005   5.079   1.385 -0.4616 -0.5353 -0.2689
   15CHTO  H206 5972   6.039   5.124   1.310 -0.7075 -1.0632 -0.7085
   15CHTO  C121 5973   5.906   4.713   1.445  0.6059  0.1638 -0.5016
   15CHTO  H225 5974   5.968   4.688   1.357 -0.7445 -0.5033 -1.2825
   15CHTO   O81 5975   5.986   4.677   1.561 -0.6710 -0.4677  0.4006
   15CHTO  H202 5976   5.951   4.707   1.643 -2.5548 -2.0029  0.2021
   15CHTO  C119 5977   5.774   4.623   1.454 -0.2153  0.4373 -0.4246
   15CHTO  H223 5978   5.744   4.602   1.352  1.1942  1.6793 -1.1169
   15CHTO  C117 5979   5.661   4.702   1.526  0.2606 -0.3364  0.3428
   15CHTO  H221 5980   5.685   4.729   1.628 -1.2287 -1.2728  0.9647
   15CHTO   N20 5981   5.531   4.627   1.539 -0.3527  0.7637  0.0827
   15CHTO  H209 5982   5.456   4.682   1.595  1.3682  2.9662  0.3314
   15CHTO  H210 5983   5.555   4.541   1.599  2.2700  1.2670 -0.2083
   15CHTO   O80 5984   5.793   4.485   1.511 -0.2419  0.1712  0.2565
   15CHTO  C103 5985   5.782   4.354   1.422  0.5091 -0.1122  0.5938
   15CHTO  H190 5986   5.776   4.273   1.495  1.0570 -2.1823 -1.5578
   15CHTO  C101 5987   5.664   4.341   1.308 -0.0056  0.1264  0.1096
   15CHTO  H188 5988   5.656   4.429   1.244 -1.2202  0.9858  1.4247
   15CHTO   O68 5989   5.537   4.336   1.378  1.0134  0.1405  0.0452
   15CHTO  H168 5990   5.489   4.413   1.356  1.1820 -0.3364 -2.0120
   15CHTO   C99 5991   5.684   4.212   1.215  0.3046 -0.1574  0.1476
   15CHTO  H186 5992   5.657   4.122   1.274 -0.4046 -0.5715 -0.8042
   15CHTO   N17 5993   5.606   4.215   1.094 -0.1180 -0.3896 -0.3852
   15CHTO  H174 5994   5.548   4.125   1.079  1.7510 -1.8693  0.9667
   15CHTO  H175 5995   5.544   4.302   1.106 -0.8867 -1.0210  0.3324
   15CHTO   C97 5996   5.837   4.190   1.173  0.6206 -0.4631  0.3633
   15CHTO  H184 5997   5.872   4.256   1.093  0.2384 -2.0715 -1.1449
   15CHTO   O64 5998   5.916   4.201   1.296 -0.1048  0.1671 -0.1846
   15CHTO  C104 5999   5.913   4.333   1.347 -0.0666 -0.3079 -0.0969
   15CHTO  H191 6000   5.921   4.408   1.269  2.6917  0.2804  0.6882
   15CHTO  C108 6001   6.036   4.356   1.440  0.3254  0.2673  0.0496
   15CHTO   O71 6002   6.046   4.251   1.542 -0.1907 -0.3104  0.2764
   15CHTO  H171 6003   6.085   4.172   1.510  0.3334 -0.4707  1.2836
   15CHTO   O62 6004   5.858   4.052   1.137  0.7676 -0.2354 -0.0978
   15CHTO   C91 6005   5.902   4.026   1.003  0.1174  0.4079 -0.7525
   15CHTO  H178 6006   5.911   4.114   0.939 -1.9208 -0.7766 -2.7404
   15CHTO   C92 6007   5.780   3.943   0.939 -0.0279  0.7198  1.1204
   15CHTO  H179 6008   5.682   3.994   0.946 -0.6041 -0.2466  0.2242
   15CHTO   O66 6009   5.811   3.935   0.798  0.3552  0.3496 -0.0263
   15CHTO  H166 6010   5.813   4.018   0.754 -1.7331 -0.0723 -1.0064
   15CHTO   C93 6011   5.774   3.791   0.998  0.5058 -0.5264 -0.4210
   15CHTO  H180 6012   5.723   3.731   0.921  0.3123 -1.4091  0.3834
   15CHTO   N16 6013   5.694   3.767   1.121  0.7738 -0.6898 -0.3395
   15CHTO  H172 6014   5.619   3.689   1.117  0.6095 -0.6969  1.8065
   15CHTO  H173 6015   5.652   3.863   1.144 -2.3940 -0.8789 -4.7596
   15CHTO   C94 6016   5.920   3.740   1.010  0.2199 -0.2165  0.2819
   15CHTO  H181 6017   5.947   3.721   1.114 -1.4286 -1.1653  0.5539
   15CHTO   O61 6018   6.024   3.816   0.939  0.4260 -0.3436  0.0671
   15CHTO   C95 6019   6.044   3.953   0.988 -0.0175 -0.3286 -1.1264
   15CHTO  H182 6020   6.092   3.939   1.085 -3.0330  3.2363  1.0431
   15CHTO  C106 6021   6.146   4.037   0.902  0.3741  0.7686 -0.4875
   15CHTO   O69 6022   6.259   3.958   0.864  0.7823 -0.3073 -0.3750
   15CHTO  H169 6023   6.332   3.999   0.822  0.6254  0.3929  0.0249
   15CHTO   O63 6024   5.920   3.593   0.937  0.4026 -0.2074  0.8314
   15CHTO   C96 6025   5.984   3.479   1.008 -0.2033  0.1222 -0.1184
   15CHTO  H183 6026   5.972   3.506   1.113  3.2543  0.5719  0.1974
   15CHTO   C98 6027   6.136   3.476   0.983  0.3962 -0.8301  0.4061
   15CHTO  H185 6028   6.138   3.493   0.875 -1.5214  1.9023  0.7230
   15CHTO   O67 6029   6.194   3.593   1.043  0.6264  0.4127 -0.4915
   15CHTO  H167 6030   6.265   3.624   0.990 -0.4717 -0.1348 -2.3516
   15CHTO  C102 6031   6.214   3.332   1.026 -0.5134  0.5032  0.7220
   15CHTO  H189 6032   6.244   3.336   1.132  0.6004 -1.6745  0.5058
   15CHTO   N18 6033   6.344   3.317   0.949  0.1731  0.4176 -0.0297
   15CHTO  H176 6034   6.349   3.356   0.848  1.3777  0.3740  0.0070
   15CHTO  H177 6035   6.370   3.212   0.946 -0.4113  0.2670 -0.0316
   15CHTO  C105 6036   6.129   3.205   1.007 -0.2879 -0.4660  0.2739
   15CHTO  H192 6037   6.139   3.168   0.906  2.6804  0.2546  0.2816
   15CHTO   O65 6038   5.988   3.222   1.022  0.3982 -0.0655 -0.0653
   15CHTO  C100 6039   5.920   3.338   0.962 -0.2260  0.0625 -0.2676
   15CHTO  H187 6040   5.918   3.333   0.852  1.1149  0.0648 -0.3016
   15CHTO  C107 6041   5.774   3.330   1.018  0.0522  0.3092 -0.2661
   15CHTO   O70 6042   5.703   3.215   0.978 -0.0143  0.5189  0.5534
   15CHTO  H170 6043   5.725   3.135   1.021 -1.5105 -0.8617 -1.1294
   15CHTO   O57 6044   6.189   3.085   1.108 -0.1456  0.6859  0.0210
   15CHTO   C85 6045   6.136   2.950   1.119  0.1402  0.2839  0.0994
   15CHTO  H157 6046   6.025   2.960   1.125  0.0878  0.3263 -0.9022
   15CHTO   C83 6047   6.188   2.901   1.261 -0.1447  0.5883  0.5437
   15CHTO  H155 6048   6.150   2.980   1.327 -0.1713  1.5371 -0.5893
   15CHTO   O56 6049   6.335   2.908   1.253  0.4271  0.3244  0.0156
   15CHTO  H135 6050   6.370   2.920   1.339  1.2930  2.0168 -0.5464
   15CHTO   C81 6051   6.125   2.767   1.309 -0.5321  1.3039  0.8352
   15CHTO  H153 6052   6.017   2.778   1.296 -0.5529  2.2782  1.7334
   15CHTO   N14 6053   6.145   2.736   1.448  0.5168 -0.6945 -0.6468
   15CHTO  H141 6054   6.059   2.705   1.503  2.0237 -2.3183  0.8769
   15CHTO  H142 6055   6.197   2.818   1.495 -0.1916  0.1943 -1.3831
   15CHTO   C79 6056   6.164   2.654   1.202 -0.4041  0.3827 -0.1685
   15CHTO  H151 6057   6.103   2.567   1.226 -0.1140  0.2942  0.2529
   15CHTO   O52 6058   6.147   2.703   1.062 -0.0348 -0.2652 -0.0836
   15CHTO   C86 6059   6.179   2.841   1.016  0.4222  0.4921 -0.5902
   15CHTO  H158 6060   6.287   2.850   0.991  0.1850  1.8437 -1.1677
   15CHTO   C90 6061   6.097   2.866   0.889  0.1408 -0.2647  0.1697
   15CHTO   O60 6062   5.960   2.812   0.892  0.1333 -0.2995  0.3827
   15CHTO  H138 6063   5.970   2.721   0.913  2.6523 -0.0997  0.2719
   15CHTO   O50 6064   6.300   2.608   1.203  0.4366  0.3357 -0.1162
   15CHTO   C73 6065   6.363   2.489   1.159  0.0255  0.2049 -0.0796
   15CHTO  H145 6066   6.326   2.454   1.062  0.8729 -0.7810 -0.0561
   15CHTO   C74 6067   6.326   2.380   1.253 -0.3913  0.0674 -0.5307
   15CHTO  H146 6068   6.221   2.404   1.273  0.4965  2.2733  1.7633
   15CHTO   O54 6069   6.340   2.247   1.185 -0.2210 -0.1796 -0.5320
   15CHTO  H133 6070   6.313   2.176   1.240 -2.6557  1.0222 -0.1020
   15CHTO   C75 6071   6.416   2.397   1.379  0.6529 -0.5757 -1.0052
   15CHTO  H147 6072   6.387   2.488   1.435  1.4327 -1.7117  1.3225
   15CHTO   N13 6073   6.396   2.284   1.478 -0.6744 -0.0147  0.0265
   15CHTO  H139 6074   6.290   2.273   1.498 -1.0901  0.9047 -1.6293
   15CHTO  H140 6075   6.454   2.298   1.568  0.1866 -0.5814 -0.4253
   15CHTO   C76 6076   6.566   2.401   1.343 -0.4898 -0.4916 -0.2402
   15CHTO  H148 6077   6.606   2.307   1.302 -3.2587 -0.8292 -2.2721
   15CHTO   O49 6078   6.596   2.515   1.260  0.0798 -0.1822  0.2842
   15CHTO   C77 6079   6.516   2.504   1.139 -0.1260  0.7750  0.5476
   15CHTO  H149 6080   6.547   2.422   1.075  0.8757  0.3553  1.5507
   15CHTO   C88 6081   6.540   2.632   1.060 -0.6743  0.1797  0.8980
   15CHTO   O58 6082   6.535   2.607   0.938 -0.0653  0.4573 -0.1892
   15CHTO  H136 6083   6.623   2.597   0.907 -0.7219 -0.2691 -1.8906
   15CHTO   O51 6084   6.655   2.453   1.462  0.0155 -0.0017  0.0601
   15CHTO   C78 6085   6.811   2.424   1.447  0.6318 -0.1966  0.0713
   15CHTO  H150 6086   6.832   2.401   1.341 -1.0165  3.1397 -1.0690
   15CHTO   C80 6087   6.839   2.302   1.538  0.1005 -0.1002  0.1719
   15CHTO  H152 6088   6.801   2.324   1.640 -1.9523  1.5694 -0.9007
   15CHTO   O55 6089   6.764   2.189   1.487 -0.0424  0.2546 -0.2257
   15CHTO  H134 6090   6.789   2.164   1.400  1.6662  0.9571  0.0331
   15CHTO   C84 6091   6.989   2.259   1.553 -0.2230  0.3950 -0.1630
   15CHTO  H156 6092   7.022   2.222   1.456 -0.1083  0.0908 -0.0094
   15CHTO   N15 6093   7.016   2.151   1.658  0.0880 -0.0955  0.8191
   15CHTO  H143 6094   6.938   2.152   1.730 -0.6547 -0.4654  0.0288
   15CHTO  H144 6095   7.011   2.055   1.611 -1.0401  0.9036 -1.1302
   15CHTO   C87 6096   7.075   2.380   1.593  0.2840  0.1982  0.3313
   15CHTO  H159 6097   7.050   2.407   1.695  1.0040  0.7760  0.3598
   15CHTO   O53 6098   7.034   2.499   1.476 -0.1620 -0.7441 -0.3508
   15CHTO   C82 6099   6.896   2.543   1.485  0.0114 -0.3551  1.3547
   15CHTO  H154 6100   6.879   2.593   1.580 -0.1022  0.8283  0.7192
   15CHTO   C89 6101   6.888   2.650   1.379  0.0233  0.5456  0.2745
   15CHTO   O59 6102   6.757   2.712   1.369 -0.7629 -0.6418 -0.2290
   15CHTO  H137 6103   6.691   2.648   1.348 -0.4963 -1.3855  1.0826
   15CHTO   O45 6104   7.228   2.357   1.601 -0.2114 -0.0504  0.4484
   15CHTO   C67 6105   7.300   2.481   1.612  0.2167 -0.5683 -0.6457
   15CHTO  H124 6106   7.248   2.558   1.554 -0.7441 -0.0571  0.8686
   15CHTO   C65 6107   7.318   2.537   1.760 -0.8024 -0.6128  0.0270
   15CHTO  H122 6108   7.316   2.451   1.827  0.7524  1.2868  2.6392
   15CHTO   O44 6109   7.198   2.611   1.783 -0.7259  0.4926  0.7577
   15CHTO  H102 6110   7.129   2.552   1.806  1.0426 -2.2607 -0.7702
   15CHTO   C63 6111   7.463   2.597   1.795  0.3524  0.3171  0.0541
   15CHTO  H120 6112   7.534   2.515   1.798  2.6758  2.2855  0.2561
   15CHTO   N11 6113   7.477   2.653   1.938  0.1745 -0.0984  0.1890
   15CHTO  H108 6114   7.436   2.583   2.007 -1.6408  1.2302  0.5222
   15CHTO  H109 6115   7.577   2.653   1.976 -0.4941  1.2064  2.0315
   15CHTO   C61 6116   7.510   2.692   1.669  0.5916 -0.3448 -0.3940
   15CHTO  H118 6117   7.613   2.723   1.688  1.0861 -2.0447 -0.1538
   15CHTO   O40 6118   7.522   2.600   1.549 -0.7727 -0.2575 -0.1084
   15CHTO   C68 6119   7.446   2.473   1.554 -1.2017  0.8886 -0.0704
   15CHTO  H125 6120   7.504   2.405   1.620 -1.1053  0.1042 -0.9465
   15CHTO   C72 6121   7.460   2.413   1.412  0.0836  0.0930  0.2803
   15CHTO   O48 6122   7.384   2.469   1.303  0.0871 -0.1398 -0.3337
   15CHTO  H105 6123   7.300   2.427   1.297  0.6729 -1.2862 -0.7379
   15CHTO   O38 6124   7.424   2.808   1.654 -0.0250  0.3424  0.1210
   15CHTO   C55 6125   7.459   2.910   1.555  0.0370  0.4869 -0.1696
   15CHTO  H112 6126   7.532   2.870   1.483 -1.3285 -0.0962 -1.2631
   15CHTO   C56 6127   7.509   3.051   1.621  0.2368  0.6141  0.7684
   15CHTO  H113 6128   7.437   3.067   1.702 -0.2442  0.4869  0.3683
   15CHTO   O42 6129   7.629   3.025   1.686  0.1061 -0.0110 -0.4413
   15CHTO  H100 6130   7.637   3.090   1.753  0.5991 -1.3610  0.8409
   15CHTO   C57 6131   7.510   3.169   1.516  0.1915  0.0011  0.2651
   15CHTO  H114 6132   7.591   3.126   1.457  1.0971 -0.8677  2.0870
   15CHTO   N10 6133   7.551   3.298   1.566 -0.1277 -0.1840  0.8357
   15CHTO  H106 6134   7.658   3.304   1.552 -0.1014  0.5937  1.3334
   15CHTO  H107 6135   7.508   3.392   1.532  0.4126  0.1807  1.1502
   15CHTO   C58 6136   7.376   3.169   1.430 -0.2338  0.1169 -0.0138
   15CHTO  H115 6137   7.293   3.197   1.499 -1.0818  0.4132 -1.1435
   15CHTO   O37 6138   7.359   3.042   1.371  0.8925  0.3379 -0.0302
   15CHTO   C59 6139   7.334   2.931   1.467 -0.2640 -0.2097  0.1458
   15CHTO  H116 6140   7.251   2.953   1.534  1.2620  1.3134  1.6039
   15CHTO   C70 6141   7.281   2.798   1.403  0.4378 -0.1939 -0.1230
   15CHTO   O46 6142   7.161   2.817   1.329 -0.3524 -0.0336 -0.3198
   15CHTO  H103 6143   7.097   2.828   1.397  2.0841 -1.2653  2.2829
   15CHTO   O39 6144   7.391   3.284   1.321 -0.5476  0.2060 -0.4370
   15CHTO   C60 6145   7.346   3.286   1.181 -0.5892 -0.7258 -0.2815
   15CHTO  H117 6146   7.426   3.241   1.122  0.7902 -0.6168  1.4586
   15CHTO   C62 6147   7.210   3.212   1.160 -0.1903 -0.2833 -0.8114
   15CHTO  H119 6148   7.238   3.107   1.182 -1.2977 -0.6089 -0.9404
   15CHTO   O43 6149   7.121   3.252   1.264 -0.2776 -0.1651 -0.1713
   15CHTO  H101 6150   7.143   3.340   1.286 -1.0483  0.2009 -0.8529
   15CHTO   C66 6151   7.148   3.229   1.010 -0.1021  0.8989  0.3403
   15CHTO  H123 6152   7.215   3.180   0.940 -1.2350 -1.6344  0.9789
   15CHTO   N12 6153   7.011   3.175   0.992  0.3115  0.3053  0.0415
   15CHTO  H110 6154   7.003   3.081   1.044 -0.5837  0.5312  0.3166
   15CHTO  H111 6155   6.926   3.241   1.000 -2.8326 -3.4966 -0.2561
   15CHTO   C69 6156   7.146   3.380   0.968  0.3230 -0.9468  0.7723
   15CHTO  H126 6157   7.071   3.437   1.026  0.1852 -1.8164  1.4502
   15CHTO   O41 6158   7.288   3.438   0.995 -0.1583  0.5220 -0.3863
   15CHTO   C64 6159   7.332   3.438   1.142 -0.2879  0.4445  0.6492
   15CHTO  H121 6160   7.259   3.490   1.208  0.5379  0.6794  1.3741
   15CHTO   C71 6161   7.469   3.507   1.148 -0.1219 -0.0062  0.3826
   15CHTO   O47 6162   7.452   3.646   1.125 -0.2738 -0.1819  0.2953
   15CHTO  H104 6163   7.492   3.660   1.041  1.6753  0.2619  1.2495
   15CHTO   O34 6164   7.119   3.403   0.828  0.0177 -0.8448 -0.4999
   15CHTO   C49 6165   7.007   3.420   0.728  0.1431  0.1320  0.0924
   15CHTO   H91 6166   6.979   3.323   0.687 -1.0615 -0.0007  1.1934
   15CHTO   C47 6167   7.066   3.510   0.613  0.2766 -0.0290  0.6082
   15CHTO   H89 6168   6.985   3.517   0.537  0.4921  1.4379  0.5028
   15CHTO   O33 6169   7.176   3.447   0.552  0.4492  0.1474  0.2704
   15CHTO   H70 6170   7.215   3.498   0.484 -2.5953  0.3247 -1.4558
   15CHTO   C45 6171   7.100   3.665   0.667  0.2189  0.8930 -0.5111
   15CHTO   H87 6172   7.157   3.653   0.761 -1.2773 -0.3613  0.2540
   15CHTO    N8 6173   7.177   3.748   0.569 -0.4411 -0.0353  0.3368
   15CHTO   H75 6174   7.262   3.812   0.585  0.5452 -0.6289 -2.4573
   15CHTO   H76 6175   7.111   3.772   0.487  3.2323  0.8095 -2.4920
   15CHTO   C43 6176   6.955   3.726   0.711  0.7018  0.6698  0.4355
   15CHTO   H85 6177   6.986   3.820   0.756  1.4732 -0.2469  1.8500
   15CHTO   O29 6178   6.889   3.642   0.810 -0.0648 -0.5329  0.2774
   15CHTO   C50 6179   6.877   3.495   0.781  0.2885  0.0348 -0.5151
   15CHTO   H92 6180   6.850   3.457   0.880 -1.8765  0.0815 -1.0695
   15CHTO   C54 6181   6.748   3.474   0.690  0.5435 -0.5512 -0.2773
   15CHTO   O36 6182   6.620   3.495   0.750  0.3463 -0.1310 -0.7659
   15CHTO   H72 6183   6.609   3.588   0.762 -0.6028 -0.3817  0.4244
   15CHTO   O27 6184   6.870   3.750   0.594  0.3800 -0.2621  0.1858
   15CHTO   C37 6185   6.780   3.821   0.516 -0.6296 -1.0227  0.9756
   15CHTO   H79 6186   6.727   3.745   0.457 -1.2572  0.3087 -0.2232
   15CHTO   C38 6187   6.668   3.881   0.605  0.1218 -0.2946 -0.2430
   15CHTO   H80 6188   6.716   3.945   0.681 -0.1292 -0.1413 -0.2119
   15CHTO   O31 6189   6.604   3.771   0.672 -0.5175  0.9767 -0.1377
   15CHTO   H68 6190   6.527   3.747   0.625  0.6629  0.5500 -1.9055
   15CHTO   C39 6191   6.564   3.955   0.516 -0.1454  0.1171 -0.0331
   15CHTO   H81 6192   6.539   3.896   0.428 -1.1460  2.4329 -1.3353
   15CHTO    N7 6193   6.435   3.992   0.594  0.0993  0.1857  0.9078
   15CHTO   H73 6194   6.375   4.058   0.533 -0.3367 -1.1447 -0.1316
   15CHTO   H74 6195   6.459   4.036   0.689  0.6909  0.9040  0.4278
   15CHTO   C40 6196   6.643   4.073   0.453 -0.0828  0.0967 -0.2791
   15CHTO   H82 6197   6.681   4.154   0.514  0.7928  0.7314 -1.6497
   15CHTO   O26 6198   6.743   4.024   0.367  0.4710  0.1980 -0.1354
   15CHTO   C41 6199   6.838   3.937   0.423  0.1844  0.3558 -0.2143
   15CHTO   H83 6200   6.909   3.998   0.481  0.9830  0.8054 -1.6484
   15CHTO   C52 6201   6.915   3.876   0.308  0.0670  0.0892 -0.3685
   15CHTO   O35 6202   7.046   3.943   0.290 -0.2594 -0.6559  0.8297
   15CHTO   H71 6203   7.109   3.932   0.358  0.9144 -0.1603 -0.1387
   15CHTO   O28 6204   6.569   4.137   0.353  0.3536 -0.0527 -0.1241
   15CHTO   C42 6205   6.568   4.279   0.322  0.4336 -0.1488 -0.1881
   15CHTO   H84 6206   6.534   4.274   0.218 -1.1557 -1.8579  0.3836
   15CHTO   C44 6207   6.712   4.354   0.313  0.2272  0.4196 -0.7628
   15CHTO   H86 6208   6.756   4.360   0.413  1.9925 -0.1558 -1.4788
   15CHTO   O32 6209   6.786   4.273   0.220  0.5712 -0.5327 -0.2184
   15CHTO   H69 6210   6.767   4.306   0.134  0.2094 -1.4718 -0.5077
   15CHTO   C48 6211   6.698   4.511   0.272  0.2638  0.2756  0.4448
   15CHTO   H90 6212   6.657   4.511   0.171  0.2600  2.1684  0.4301
   15CHTO    N9 6213   6.833   4.574   0.270  0.6064 -0.5053  0.3893
   15CHTO   H77 6214   6.873   4.593   0.368 -1.7315  0.3677  1.1976
   15CHTO   H78 6215   6.906   4.518   0.214 -0.4836 -1.0001 -0.5553
   15CHTO   C51 6216   6.586   4.579   0.371  0.2959  0.5720 -0.4909
   15CHTO   H93 6217   6.622   4.560   0.471  0.3049  2.2487 -0.1619
   15CHTO   O30 6218   6.453   4.513   0.348 -0.2461 -0.2770 -0.4240
   15CHTO   C46 6219   6.460   4.361   0.404  0.6023  0.2338  0.1481
   15CHTO   H88 6220   6.491   4.369   0.509 -1.7879  0.0467  0.8863
   15CHTO   C53 6221   6.322   4.283   0.392  0.1292 -0.1379  0.6319
   15CHTO   O72 6222   6.219   4.378   0.419  0.1378  0.0387  0.0461
   15CHTO  H199 6223   6.152   4.369   0.354  0.7206 -0.5432 -0.4656
   15CHTO   O22 6224   6.577   4.716   0.337 -0.7243  0.1285 -0.4367
   15CHTO   C31 6225   6.501   4.821   0.406  0.5731  0.2354  0.2880
   15CHTO   H59 6226   6.543   4.917   0.369  0.7796 -1.5450 -4.4516
   15CHTO   C29 6227   6.352   4.811   0.355 -0.3139  0.0151 -0.4457
   15CHTO   H57 6228   6.310   4.712   0.379 -1.2291  0.7256  0.9843
   15CHTO   O21 6229   6.353   4.822   0.210 -0.1082 -0.0762  0.2765
   15CHTO   H37 6230   6.267   4.806   0.175 -0.6396  1.6044  0.7685
   15CHTO   C27 6231   6.261   4.923   0.414  0.2971  0.0828 -0.2926
   15CHTO   H55 6232   6.305   5.020   0.385  0.8738 -0.3466 -0.8766
   15CHTO    N5 6233   6.119   4.920   0.368  0.3344  0.3056 -0.6140
   15CHTO   H43 6234   6.082   5.022   0.370 -0.0776  0.1937 -2.2187
   15CHTO   H44 6235   6.113   4.898   0.263  1.6060  0.2463 -0.6754
   15CHTO   C25 6236   6.267   4.917   0.565  0.0039  0.9169  0.7022
   15CHTO   H53 6237   6.219   4.829   0.608 -1.6317  1.9458  1.0164
   15CHTO   O17 6238   6.407   4.934   0.605 -0.5886 -0.0118 -0.2302
   15CHTO   C32 6239   6.492   4.820   0.559  0.1492  0.1821 -0.6503
   15CHTO   H60 6240   6.458   4.722   0.594 -2.4804  1.3026  0.0027
   15CHTO   C36 6241   6.629   4.849   0.624 -0.3248  0.4634 -0.1291
   15CHTO   O25 6242   6.703   4.735   0.676 -0.6667 -0.3180  0.1278
   15CHTO   H40 6243   6.729   4.682   0.603  0.8024 -0.9345  1.0639
   15CHTO   O15 6244   6.184   5.042   0.619  0.0189  0.3031 -0.2922
   15CHTO   C19 6245   6.173   5.158   0.703  0.5181 -0.3411 -0.9365
   15CHTO   H47 6246   6.277   5.193   0.713  0.2028  0.2520  0.2607
   15CHTO   C20 6247   6.102   5.285   0.641  0.7881 -0.1107 -0.5176
   15CHTO   H48 6248   5.993   5.274   0.630  0.9584  0.7044 -3.3780
   15CHTO   O19 6249   6.140   5.301   0.508 -0.2112  0.3267  0.4816
   15CHTO   H35 6250   6.126   5.226   0.454  0.2550  1.0175 -0.6067
   15CHTO   C21 6251   6.132   5.407   0.731 -0.0033  0.4481  0.1247
   15CHTO   H49 6252   6.236   5.436   0.713 -0.8628  2.3168 -2.1784
   15CHTO    N4 6253   6.057   5.529   0.686  0.7982  0.2442 -0.1626
   15CHTO   H41 6254   6.039   5.541   0.580 -0.2833  0.5455  0.0549
   15CHTO   H42 6255   5.964   5.545   0.738  1.0322 -1.9596  0.9954
   15CHTO   C22 6256   6.122   5.376   0.880  0.3019 -0.0166 -0.1395
   15CHTO   H50 6257   6.014   5.374   0.892  0.0187 -0.7117 -2.4164
   15CHTO   O14 6258   6.158   5.246   0.924  0.1182 -0.0163  0.3062
   15CHTO   C23 6259   6.123   5.130   0.845  0.4520  0.0715  0.2047
   15CHTO   H51 6260   6.013   5.123   0.847  0.4530 -0.7496 -1.4885
   15CHTO   C34 6261   6.185   5.007   0.906  0.2131 -0.3409  0.2683
   15CHTO   O23 6262   6.173   5.009   1.047  0.2348 -0.1546  0.1530
   15CHTO   H38 6263   6.147   4.919   1.057 -0.2563 -0.0023  0.2450
   15CHTO   O16 6264   6.192   5.471   0.963  0.1589  0.6414  0.5667
   15CHTO   C24 6265   6.307   5.424   1.044 -0.5784 -0.0057 -0.4040
   15CHTO   H52 6266   6.341   5.324   1.019 -2.5896  0.0163 -3.5505
   15CHTO   C26 6267   6.259   5.418   1.188 -0.2153 -0.6655 -0.4931
   15CHTO   H54 6268   6.210   5.515   1.206 -0.4024 -0.1930 -3.3108
   15CHTO   O20 6269   6.164   5.304   1.206  0.6357  0.0858 -0.0509
   15CHTO   H36 6270   6.157   5.293   1.299 -0.7002  3.6778  0.3452
   15CHTO   C30 6271   6.374   5.403   1.291 -0.1570 -0.1739 -0.5518
   15CHTO   H58 6272   6.401   5.296   1.288 -1.2061 -0.4158 -1.4233
   15CHTO    N6 6273   6.331   5.442   1.423 -0.0386 -0.3484  0.4220
   15CHTO   H45 6274   6.240   5.390   1.452  1.4573 -2.9573  0.6042
   15CHTO   H46 6275   6.411   5.401   1.483  0.6715  0.5272  0.0639
   15CHTO   C33 6276   6.508   5.476   1.250 -0.6190  0.1164  0.4178
   15CHTO   H61 6277   6.502   5.581   1.280 -1.7485  0.8980 -2.3467
   15CHTO   O18 6278   6.534   5.465   1.110 -0.3745 -0.0713 -0.1409
   15CHTO   C28 6279   6.433   5.520   1.029 -0.1991 -0.8502  0.2914
   15CHTO   H56 6280   6.406   5.621   1.059  0.2063 -0.4088 -0.8157
   15CHTO   C35 6281   6.476   5.523   0.884  0.2317  0.1639  0.1728
   15CHTO   O24 6282   6.587   5.621   0.862  0.2524 -0.4033  0.0382
   15CHTO   H39 6283   6.567   5.687   0.924 -0.3515 -0.5906  0.0504
   15CHTO    O9 6284   6.614   5.418   1.332  0.1426 -0.5059 -0.6024
   15CHTO   C13 6285   6.725   5.532   1.360  0.4165  0.8003  0.0743
   15CHTO   H26 6286   6.673   5.631   1.356  0.5564  0.8451 -0.7073
   15CHTO   C11 6287   6.842   5.520   1.251 -0.4260 -0.7386  0.0095
   15CHTO   H24 6288   6.835   5.612   1.191  0.8834 -0.3978  0.3597
   15CHTO    O8 6289   6.813   5.405   1.167 -1.0204 -0.8618 -0.3410
   15CHTO    H3 6290   6.733   5.405   1.119 -1.2930  0.3151  0.1071
   15CHTO    C9 6291   6.980   5.521   1.321  0.2122 -0.5022 -0.5179
   15CHTO   H22 6292   6.986   5.620   1.368  2.7264 -1.3998  1.1383
   15CHTO    N2 6293   7.095   5.523   1.229  0.4191 -0.5142  0.0130
   15CHTO   H10 6294   7.167   5.445   1.246  1.0740 -0.3913 -2.0096
   15CHTO   H11 6295   7.138   5.621   1.219  2.8401 -1.2308  2.8292
   15CHTO    C7 6296   6.982   5.408   1.439  0.1511  0.7312 -0.2148
   15CHTO   H20 6297   7.068   5.442   1.501  0.5270  1.2466 -1.0152
   15CHTO    O4 6298   6.865   5.397   1.516 -0.3043 -0.1428  0.5593
   15CHTO   C14 6299   6.777   5.513   1.514 -0.0152  0.0418 -0.2522
   15CHTO   H27 6300   6.832   5.602   1.550  2.4141 -1.5949  0.1695
   15CHTO   C18 6301   6.668   5.487   1.613  0.5453  0.4107 -0.4931
   15CHTO   O13 6302   6.575   5.602   1.621  0.6475 -0.3884 -0.4883
   15CHTO    H7 6303   6.544   5.638   1.540 -3.3816 -1.1608  0.5925
   15CHTO    O2 6304   7.007   5.257   1.374 -0.8129  0.3676  0.1138
   15CHTO    C1 6305   7.082   5.175   1.469  0.5867  0.4470  0.3578
   15CHTO   H14 6306   7.069   5.217   1.571  0.5615  0.6665  0.2652
   15CHTO    C2 6307   7.238   5.164   1.441 -0.5372 -0.7036 -0.4594
   15CHTO   H15 6308   7.255   5.141   1.335 -0.5500  0.6677 -0.7678
   15CHTO    O6 6309   7.297   5.291   1.460 -0.0606 -0.1960 -0.1017
   15CHTO    H1 6310   7.391   5.286   1.454 -0.0568 -0.6436  0.2654
   15CHTO    C3 6311   7.304   5.050   1.530  0.2659  0.3520 -0.7903
   15CHTO   H16 6312   7.297   5.080   1.636 -0.2739 -1.6858 -0.2333
   15CHTO    N1 6313   7.444   5.016   1.497 -0.3738 -0.1459  0.1238
   15CHTO    H8 6314   7.492   4.928   1.538 -0.9903 -0.5607 -0.0475
   15CHTO    H9 6315   7.444   4.997   1.390 -0.0052  1.2123 -0.1193
   15CHTO    C4 6316   7.216   4.923   1.526  0.8319  0.0720 -0.7098
   15CHTO   H17 6317   7.225   4.873   1.429 -0.0312  0.3040 -0.9159
   15CHTO    O1 6318   7.078   4.955   1.555  0.2808 -0.4592 -0.1928
   15CHTO    C5 6319   7.014   5.035   1.457  0.7780 -0.7649  0.0387
   15CHTO   H18 6320   7.027   4.991   1.358  3.5629  1.0406 -0.4534
   15CHTO   C16 6321   6.867   5.044   1.492 -0.0651 -0.6631 -0.6671
   15CHTO   O11 6322   6.795   4.924   1.464 -0.2380  0.4387  0.0292
   15CHTO    H5 6323   6.839   4.853   1.506  1.5996  0.3888 -1.8728
   15CHTO    O3 6324   7.245   4.829   1.633 -0.0541 -0.3695  0.4378
   15CHTO    C6 6325   7.206   4.690   1.631 -0.0028  0.5233 -0.5380
   15CHTO   H19 6326   7.112   4.678   1.578 -0.0287 -0.2954 -0.3152
   15CHTO    C8 6327   7.309   4.600   1.555 -0.0303 -0.3230 -0.5091
   15CHTO   H21 6328   7.408   4.635   1.585 -0.9343  0.6731  1.3904
   15CHTO    O7 6329   7.292   4.630   1.417  0.4807 -0.1294 -0.1638
   15CHTO    H2 6330   7.223   4.578   1.380  0.0740 -0.9222  1.6356
   15CHTO   C12 6331   7.309   4.446   1.582  0.3604 -0.7331  0.3741
   15CHTO   H25 6332   7.223   4.401   1.528  1.5388 -2.8440  0.1977
   15CHTO    N3 6333   7.437   4.388   1.519 -0.3167  0.4999 -0.2102
   15CHTO   H12 6334   7.461   4.400   1.414  4.5907  2.5839  1.0068
   15CHTO   H13 6335   7.524   4.411   1.578  0.6281  0.5474 -1.5877
   15CHTO   C15 6336   7.289   4.432   1.735  0.2013 -0.2854  0.2692
   15CHTO   H28 6337   7.374   4.463   1.795  0.3940 -0.9275  0.3408
   15CHTO   O10 6338   7.271   4.279   1.770 -0.8802  0.6557  0.5946
   15CHTO    H4 6339   7.184   4.248   1.756 -0.8801  1.0933 -0.4726
   15CHTO    O5 6340   7.170   4.490   1.782  0.2128  0.9986 -0.0539
   15CHTO   C10 6341   7.184   4.634   1.775 -0.7277  0.3818 -1.2188
   15CHTO   H23 6342   7.268   4.670   1.834 -2.3892  0.0132  1.5008
   15CHTO   C17 6343   7.056   4.692   1.835  0.2570  0.1899  0.4194
   15CHTO   O12 6344   7.063   4.830   1.868 -0.1473 -0.1676 -0.0413
   15CHTO    H6 6345   6.979   4.870   1.880 -0.0081 -0.3850  1.6724
   16CHTO  H203 6346   5.233   5.413   0.410 -1.7287 -0.1617 -2.0230
   16CHTO   O82 6347   5.234   5.321   0.424 -0.1027  0.0331 -0.6549
   16CHTO  C123 6348   5.278   5.277   0.553  0.0854 -0.1201 -0.2198
   16CHTO  H227 6349   5.216   5.319   0.634  0.1649 -0.7798  0.1907
   16CHTO   O77 6350   5.246   5.131   0.527 -0.0518 -0.3487 -0.3395
   16CHTO  C118 6351   5.266   5.056   0.648  0.7515  0.0835 -0.3059
   16CHTO  H222 6352   5.197   5.107   0.716 -0.1701 -0.2003 -1.0318
   16CHTO  C125 6353   5.215   4.909   0.631 -0.2927 -0.0714  0.8331
   16CHTO   O84 6354   5.187   4.838   0.759 -1.0566  0.4595  0.2262
   16CHTO  H205 6355   5.243   4.764   0.773 -4.7570 -2.5798 -0.0617
   16CHTO  C114 6356   5.413   5.045   0.687 -0.2634  0.4440  0.3680
   16CHTO  H218 6357   5.463   4.992   0.606  0.4941  0.1155  1.0460
   16CHTO  C116 6358   5.484   5.185   0.694  0.5194  0.1981 -0.0062
   16CHTO  H220 6359   5.470   5.232   0.794  0.2151  0.5527 -0.2138
   16CHTO   O79 6360   5.627   5.166   0.692 -0.5293  0.5501  0.1121
   16CHTO  H201 6361   5.670   5.248   0.679  2.9971 -1.4863 -1.5963
   16CHTO  C120 6362   5.434   5.290   0.579  0.3144 -0.1988 -0.3498
   16CHTO  H224 6363   5.479   5.265   0.481 -0.5478  1.3500 -1.1628
   16CHTO   N21 6364   5.477   5.427   0.595 -0.2003 -0.7262 -0.0239
   16CHTO  H211 6365   5.437   5.487   0.515  1.1973  0.0368 -0.1679
   16CHTO  H212 6366   5.584   5.442   0.590 -0.5079  1.7234 -0.0702
   16CHTO   O75 6367   5.417   4.965   0.814 -0.0350 -0.9287 -0.2792
   16CHTO  C112 6368   5.564   4.943   0.887  0.0507  0.1400  0.5427
   16CHTO  H216 6369   5.586   5.039   0.936 -1.7484  1.6289 -1.4705
   16CHTO   O73 6370   5.658   4.913   0.782  0.0951  0.2633 -0.0619
   16CHTO  C113 6371   5.795   4.884   0.830  0.4389 -0.2542 -0.1717
   16CHTO  H217 6372   5.835   4.976   0.879 -2.7866  1.0746  0.0822
   16CHTO  C124 6373   5.874   4.857   0.702 -0.2971 -0.2801  0.3699
   16CHTO   O83 6374   5.847   4.963   0.603  0.5793  0.3779 -0.7656
   16CHTO  H204 6375   5.855   4.929   0.516 -0.3043  3.2070 -1.9869
   16CHTO  C109 6376   5.809   4.762   0.923 -0.5414 -0.3020  0.0810
   16CHTO  H213 6377   5.783   4.672   0.864 -0.4027 -1.6657  2.0377
   16CHTO  C110 6378   5.702   4.781   1.041 -0.0380 -0.7089 -0.0460
   16CHTO  H214 6379   5.724   4.862   1.111 -3.4407 -0.1171  0.4717
   16CHTO   O78 6380   5.701   4.662   1.114 -0.3945 -0.2116  0.5817
   16CHTO  H200 6381   5.782   4.658   1.162  0.5887 -0.7439 -1.0709
   16CHTO  C111 6382   5.562   4.818   0.980  0.0041 -0.1573 -0.7312
   16CHTO  H215 6383   5.521   4.739   0.915  1.5338  0.9709 -3.1223
   16CHTO   N19 6384   5.455   4.834   1.086  0.2998 -0.0010  0.0756
   16CHTO  H207 6385   5.478   4.906   1.163  0.2035  2.4541 -2.1266
   16CHTO  H208 6386   5.441   4.745   1.145  1.0425 -0.1229  0.0639
   16CHTO   O74 6387   5.947   4.749   0.972 -0.0398  0.1854  0.1917
   16CHTO  C115 6388   5.998   4.614   1.011  0.1662 -1.3133  0.5146
   16CHTO  H219 6389   5.964   4.581   1.109  2.7033 -2.7111  0.9704
   16CHTO   O76 6390   5.943   4.502   0.925 -0.4968  0.0324  0.4115
   16CHTO  C122 6391   6.013   4.480   0.806  0.4320  0.0689 -0.1657
   16CHTO  H226 6392   5.970   4.551   0.735 -1.2507 -1.6383 -0.9041
   16CHTO  C126 6393   5.961   4.340   0.751 -0.7027  0.0818 -0.0607
   16CHTO   O85 6394   5.817   4.321   0.734  0.3158  0.2885 -0.7116
   16CHTO  H206 6395   5.776   4.398   0.700 -1.6064  0.1708  1.2366
   16CHTO  C121 6396   6.174   4.490   0.806 -0.0181 -0.7972 -0.6264
   16CHTO  H225 6397   6.220   4.399   0.761  1.6228 -0.6612  0.7225
   16CHTO   O81 6398   6.218   4.602   0.726  1.1654 -0.2617 -0.1315
   16CHTO  H202 6399   6.184   4.594   0.638  1.0819 -1.2296 -0.0083
   16CHTO  C119 6400   6.230   4.510   0.948  0.6869  0.1937 -0.0031
   16CHTO  H223 6401   6.194   4.418   0.994  0.5221 -0.4693 -1.4219
   16CHTO  C117 6402   6.157   4.625   1.026  0.5448  0.1156 -0.0415
   16CHTO  H221 6403   6.168   4.724   0.981  2.2743 -0.8057 -1.7099
   16CHTO   N20 6404   6.204   4.636   1.173  0.1901  0.4656 -0.0530
   16CHTO  H209 6405   6.292   4.584   1.207 -0.3320  0.6715  1.6586
   16CHTO  H210 6406   6.126   4.588   1.231 -0.4900  0.9495 -0.5620
   16CHTO   O80 6407   6.372   4.498   0.957  0.7354  0.6993  0.1789
   16CHTO  C103 6408   6.447   4.377   0.934 -1.1136  1.3012  0.2805
   16CHTO  H190 6409   6.385   4.309   0.877  0.8625 -1.6396  1.4847
   16CHTO  C101 6410   6.588   4.400   0.864 -0.5655  0.0553 -0.2711
   16CHTO  H188 6411   6.637   4.473   0.928 -1.6407 -0.1211  0.7698
   16CHTO   O68 6412   6.547   4.480   0.714 -0.5547 -0.2289  0.3217
   16CHTO  H168 6413   6.500   4.417   0.664 -0.2302 -2.5035  2.7414
   16CHTO   C99 6414   6.664   4.265   0.845  0.1099  0.1507  0.7174
   16CHTO  H186 6415   6.593   4.201   0.789  1.0010 -2.2582  2.2420
   16CHTO   N17 6416   6.799   4.278   0.773 -0.0209 -0.1438 -0.2339
   16CHTO  H174 6417   6.846   4.182   0.762  1.6422  0.6674 -0.3323
   16CHTO  H175 6418   6.770   4.312   0.675  0.4396 -0.6102 -0.5330
   16CHTO   C97 6419   6.683   4.189   0.977 -0.0159 -0.3814  0.2778
   16CHTO  H184 6420   6.765   4.227   1.040  1.2213 -2.1852 -0.2140
   16CHTO   O64 6421   6.556   4.180   1.049  0.0424 -1.0269 -0.1499
   16CHTO  C104 6422   6.474   4.295   1.077 -0.4270 -0.1707 -0.5523
   16CHTO  H191 6423   6.529   4.357   1.148 -1.4392 -2.1866  2.0720
   16CHTO  C108 6424   6.358   4.236   1.152  0.4874  0.2084  0.2906
   16CHTO   O71 6425   6.378   4.179   1.283  0.0516 -0.5205  0.4047
   16CHTO  H171 6426   6.297   4.180   1.332 -0.6688 -1.3862 -0.7250
   16CHTO   O62 6427   6.709   4.052   0.953 -0.7152 -0.2654  0.0389
   16CHTO   C91 6428   6.748   3.958   1.055  0.1462 -0.5266 -0.1310
   16CHTO  H178 6429   6.707   4.005   1.144 -0.4059  1.4953 -1.4284
   16CHTO   C92 6430   6.899   3.950   1.071  0.0567 -0.5322 -0.5582
   16CHTO  H179 6431   6.941   3.922   0.973  1.5970 -0.4880  0.0675
   16CHTO   O66 6432   6.954   4.081   1.095 -0.2625  0.4146 -0.0115
   16CHTO  H166 6433   7.047   4.083   1.089  0.0747 -1.8877  3.2023
   16CHTO   C93 6434   6.952   3.842   1.175  0.5578 -0.7923 -0.3390
   16CHTO  H180 6435   6.925   3.885   1.273 -0.3146 -0.1881 -0.8346
   16CHTO   N16 6436   7.098   3.828   1.173 -0.3180  0.0940 -0.1468
   16CHTO  H172 6437   7.124   3.761   1.254 -1.2606 -2.8492 -2.2021
   16CHTO  H173 6438   7.148   3.924   1.176  0.6251 -0.3668 -0.7871
   16CHTO   C94 6439   6.871   3.708   1.153  0.2073  0.0341  0.4861
   16CHTO  H181 6440   6.908   3.649   1.069 -0.9099  0.6382 -0.4531
   16CHTO   O61 6441   6.731   3.721   1.145 -0.4630 -0.1665  0.1644
   16CHTO   C95 6442   6.690   3.814   1.033 -0.2849  0.4578 -0.9593
   16CHTO  H182 6443   6.742   3.780   0.943 -0.2048  1.9468 -1.4985
   16CHTO  C106 6444   6.531   3.832   1.012  0.8753  0.5332  0.1239
   16CHTO   O69 6445   6.475   3.707   0.958 -0.4742  0.1344 -0.5624
   16CHTO  H169 6446   6.486   3.631   1.012  0.4642 -0.1956 -1.1985
   16CHTO   O63 6447   6.899   3.629   1.282 -0.1495  0.4122 -0.3144
   16CHTO   C96 6448   6.775   3.560   1.370 -0.5781 -0.1629  0.0498
   16CHTO  H183 6449   6.831   3.505   1.446 -0.6122 -3.5454 -2.2798
   16CHTO   C98 6450   6.698   3.445   1.289 -0.0936  0.5283 -0.4081
   16CHTO  H185 6451   6.668   3.476   1.187  1.2376 -0.0254 -0.9859
   16CHTO   O67 6452   6.802   3.344   1.272  0.0488 -0.8404 -0.3254
   16CHTO  H167 6453   6.769   3.260   1.298  0.4184 -0.9621 -0.2407
   16CHTO  C102 6454   6.569   3.394   1.374 -0.8435  0.0793 -0.3626
   16CHTO  H189 6455   6.607   3.363   1.473 -1.6807 -3.2272 -1.0030
   16CHTO   N18 6456   6.490   3.277   1.322  0.4631 -0.4400 -0.1438
   16CHTO  H176 6457   6.397   3.262   1.374  0.0358  2.2457 -0.0757
   16CHTO  H177 6458   6.558   3.194   1.336  1.1776 -0.1221 -1.5947
   16CHTO  C105 6459   6.489   3.524   1.399  0.0452 -0.2814 -0.4396
   16CHTO  H192 6460   6.484   3.574   1.302 -1.4701 -1.3203 -0.9177
   16CHTO   O65 6461   6.564   3.602   1.496  0.1510 -0.4622  0.3672
   16CHTO  C100 6462   6.686   3.662   1.450 -0.0502  0.4519 -0.1717
   16CHTO  H187 6463   6.660   3.751   1.390  1.5011  0.2333 -1.1877
   16CHTO  C107 6464   6.762   3.709   1.567  0.0738 -0.0757  0.4792
   16CHTO   O70 6465   6.899   3.748   1.540  0.3033  0.2487  0.0695
   16CHTO  H170 6466   6.956   3.673   1.541 -0.6781 -0.5603 -1.6647
   16CHTO   O57 6467   6.325   3.488   1.459 -0.4422  0.1634  0.2791
   16CHTO   C85 6468   6.225   3.566   1.396  0.0234 -0.4080 -0.7931
   16CHTO  H157 6469   6.253   3.572   1.288  0.5512  2.3090 -0.5556
   16CHTO   C83 6470   6.233   3.712   1.452 -0.5329  0.0388  0.9497
   16CHTO  H155 6471   6.330   3.750   1.420  0.4171 -2.9499  0.1282
   16CHTO   O56 6472   6.240   3.704   1.594  0.2823  0.1200  0.1438
   16CHTO  H135 6473   6.161   3.743   1.625  1.5829  1.5585  1.7816
   16CHTO   C81 6474   6.115   3.784   1.376 -0.0085 -0.2323  0.0742
   16CHTO  H153 6475   6.138   3.783   1.269  1.4076  0.3871  0.3595
   16CHTO   N14 6476   6.123   3.929   1.394  0.0330 -0.0190  0.3462
   16CHTO  H141 6477   6.063   3.987   1.327  0.8465 -0.1458 -0.4915
   16CHTO  H142 6478   6.222   3.969   1.393  0.1190 -0.2253  0.7492
   16CHTO   C79 6479   5.974   3.718   1.399  0.1251  0.0662  0.1146
   16CHTO  H151 6480   5.907   3.763   1.325  0.0777  0.1370  0.1999
   16CHTO   O52 6481   5.973   3.580   1.368 -0.0281  0.2967  0.3827
   16CHTO   C86 6482   6.087   3.507   1.417  0.2812 -0.0869  0.6080
   16CHTO  H158 6483   6.065   3.496   1.526 -1.7854 -1.3229  0.0781
   16CHTO   C90 6484   6.067   3.364   1.353 -0.0763 -0.6545  0.6454
   16CHTO   O60 6485   5.933   3.319   1.377 -0.4499 -0.0330 -0.5103
   16CHTO  H138 6486   5.933   3.226   1.365 -1.4623 -0.4192  2.0938
   16CHTO   O50 6487   5.906   3.757   1.515  0.0042  0.0466  0.1165
   16CHTO   C73 6488   5.843   3.708   1.632  0.0712 -0.1440  0.8901
   16CHTO  H145 6489   5.896   3.619   1.668  0.3884 -0.0138  0.7492
   16CHTO   C74 6490   5.698   3.677   1.608 -0.1883  0.4584 -0.2029
   16CHTO  H146 6491   5.704   3.600   1.530 -0.9877 -1.5657  1.6744
   16CHTO   O54 6492   5.643   3.616   1.730  0.3349 -0.0264  0.3762
   16CHTO  H133 6493   5.669   3.665   1.805 -1.7709  0.8961  0.5201
   16CHTO   C75 6494   5.613   3.797   1.568  0.1622  0.7106 -0.3952
   16CHTO  H147 6495   5.658   3.841   1.478  0.3648  1.0798 -0.1152
   16CHTO   N13 6496   5.471   3.782   1.538  0.6164  0.0243 -0.0320
   16CHTO  H139 6497   5.434   3.845   1.459  1.3616  0.2801 -0.1833
   16CHTO  H140 6498   5.405   3.802   1.621  2.5879 -1.5906  1.9830
   16CHTO   C76 6499   5.631   3.912   1.676 -0.0908  0.0043 -0.3087
   16CHTO  H148 6500   5.595   3.873   1.771  0.0986  1.3965  0.3416
   16CHTO   O49 6501   5.779   3.933   1.685  0.2949  0.3953  0.2738
   16CHTO   C77 6502   5.859   3.826   1.736  0.4091 -0.2627  0.4257
   16CHTO  H149 6503   5.819   3.795   1.833  3.9584  1.1092  2.4340
   16CHTO   C88 6504   6.007   3.869   1.759 -0.3697 -0.2322  0.4683
   16CHTO   O58 6505   6.034   3.969   1.859 -0.4666 -0.1583 -0.3644
   16CHTO  H136 6506   6.017   3.938   1.946  0.2388  0.8069  0.1244
   16CHTO   O51 6507   5.567   4.051   1.619  0.1520 -0.1112  0.1244
   16CHTO   C78 6508   5.508   4.138   1.745 -0.3447 -0.1902 -0.4691
   16CHTO  H150 6509   5.511   4.087   1.843  0.3668 -1.3531 -1.0877
   16CHTO   C80 6510   5.363   4.178   1.717 -0.3058 -0.1285  0.3065
   16CHTO  H152 6511   5.365   4.212   1.612 -0.5182  0.0694  0.3652
   16CHTO   O55 6512   5.286   4.053   1.711 -0.4811 -0.1448  0.3425
   16CHTO  H134 6513   5.326   3.980   1.669  0.5082  0.5519  0.0593
   16CHTO   C84 6514   5.299   4.278   1.822 -0.5088 -0.2998  0.3277
   16CHTO  H156 6515   5.286   4.224   1.916  0.5124  2.7021  2.2685
   16CHTO   N15 6516   5.164   4.329   1.771  0.4126 -0.0837  0.2366
   16CHTO  H143 6517   5.079   4.286   1.820  1.1796 -0.5486  1.1667
   16CHTO  H144 6518   5.158   4.436   1.767  1.9220  0.0343  0.9099
   16CHTO   C87 6519   5.395   4.393   1.849  0.2861 -0.1155  0.4965
   16CHTO  H159 6520   5.392   4.467   1.769 -1.3772  0.6444  1.2229
   16CHTO   O53 6521   5.537   4.335   1.875 -0.1116 -0.3686 -0.2570
   16CHTO   C82 6522   5.596   4.260   1.763 -0.3181  0.5479  0.1195
   16CHTO  H154 6523   5.607   4.329   1.680  2.9289 -1.8684 -1.5699
   16CHTO   C89 6524   5.738   4.216   1.798 -0.0449 -0.3327 -0.3441
   16CHTO   O59 6525   5.842   4.313   1.785 -0.3039  0.4451 -0.0121
   16CHTO  H137 6526   5.926   4.277   1.806 -0.9026 -0.7052  0.4820
   16CHTO   O45 6527   5.352   4.478   1.974 -0.1083 -1.0098  0.0575
   16CHTO   C67 6528   5.441   4.593   1.981  0.3723 -0.0657 -0.2836
   16CHTO  H124 6529   5.526   4.579   1.915  0.3233 -1.6413 -0.0340
   16CHTO   C65 6530   5.370   4.727   1.940 -0.4920  0.7718  0.0255
   16CHTO  H122 6531   5.265   4.715   1.968 -0.7862  3.0105  0.0110
   16CHTO   O44 6532   5.379   4.734   1.798  0.3657  0.0061 -0.9410
   16CHTO  H102 6533   5.327   4.808   1.772 -1.4579 -0.8838  0.0145
   16CHTO   C63 6534   5.429   4.848   2.017 -0.2393 -0.2729 -0.1338
   16CHTO  H120 6535   5.386   4.853   2.118 -0.0255  3.5233 -0.1560
   16CHTO   N11 6536   5.389   4.987   1.967 -0.1236  0.0722 -0.0077
   16CHTO  H108 6537   5.426   5.064   2.032  0.7663 -0.2074 -0.1922
   16CHTO  H109 6538   5.434   4.989   1.870 -0.9179  0.6468 -0.3798
   16CHTO   C61 6539   5.585   4.836   2.043  0.1302  0.1244  0.4530
   16CHTO  H118 6540   5.604   4.914   2.119  1.8233 -0.0740  0.2655
   16CHTO   O40 6541   5.613   4.709   2.109  0.1396  0.0735 -0.7495
   16CHTO   C68 6542   5.506   4.607   2.122  0.3254 -0.2132 -0.3753
   16CHTO  H125 6543   5.436   4.645   2.199 -1.5234 -0.7176 -1.7867
   16CHTO   C72 6544   5.569   4.471   2.179  0.2838 -0.0155 -0.0932
   16CHTO   O48 6545   5.674   4.413   2.107 -0.6844  0.2070  0.6744
   16CHTO  H105 6546   5.640   4.364   2.035  0.9081  0.3483 -0.2016
   16CHTO   O38 6547   5.662   4.846   1.925 -0.3877  0.6880  0.0472
   16CHTO   C55 6548   5.796   4.885   1.939  0.1304  0.3962  0.2669
   16CHTO  H112 6549   5.828   4.876   2.044  0.7680 -0.9946 -0.0444
   16CHTO   C56 6550   5.809   5.032   1.887  0.4438  0.1714 -0.6410
   16CHTO  H113 6551   5.768   5.028   1.785 -0.2071  0.9596 -0.4172
   16CHTO   O42 6552   5.719   5.114   1.974 -0.1596 -0.2919  0.5484
   16CHTO  H100 6553   5.670   5.166   1.914  2.2410 -0.3101 -1.5060
   16CHTO   C57 6554   5.964   5.073   1.890  0.1450  0.9608 -0.4691
   16CHTO  H114 6555   5.993   5.073   1.995 -3.4849  1.7677  0.6031
   16CHTO   N10 6556   5.987   5.211   1.838  0.1279 -0.2277 -0.2114
   16CHTO  H106 6557   6.003   5.222   1.732 -2.7048 -0.6667 -0.7404
   16CHTO  H107 6558   6.068   5.256   1.892 -2.1568  0.8705  2.4408
   16CHTO   C58 6559   6.050   4.971   1.815 -0.0312 -0.5809 -0.4124
   16CHTO  H115 6560   6.033   4.985   1.706 -2.1827 -0.7667 -0.1251
   16CHTO   O37 6561   6.019   4.843   1.859 -0.3867 -0.0868  0.2533
   16CHTO   C59 6562   5.893   4.797   1.855  0.1360 -0.3256  0.0052
   16CHTO  H116 6563   5.867   4.797   1.749  0.8625 -1.2171 -0.1774
   16CHTO   C70 6564   5.891   4.649   1.901 -0.3352  0.2007  0.2936
   16CHTO   O46 6565   5.921   4.630   2.037  0.1214 -0.2861 -0.1002
   16CHTO  H103 6566   6.012   4.651   2.049  0.1077 -0.1765 -0.1840
   16CHTO   O39 6567   6.211   4.976   1.850 -0.1765 -0.5717 -0.2364
   16CHTO   C60 6568   6.283   4.880   1.770 -0.2548 -0.7058  0.1435
   16CHTO  H117 6569   6.222   4.794   1.741  0.4077 -0.8679 -0.8414
   16CHTO   C62 6570   6.329   4.941   1.631  0.9805  0.0985  0.4684
   16CHTO  H119 6571   6.240   4.959   1.567  0.6701  0.9810  1.1346
   16CHTO   O43 6572   6.401   5.072   1.638  0.1246 -0.0447 -0.8076
   16CHTO  H101 6573   6.390   5.134   1.569  2.2027  1.0233 -0.2079
   16CHTO   C66 6574   6.406   4.829   1.553  0.6789  0.1862 -0.0358
   16CHTO  H123 6575   6.330   4.753   1.533 -0.2330  1.1523 -0.2408
   16CHTO   N12 6576   6.452   4.868   1.419  0.2361  0.1085  0.8877
   16CHTO  H110 6577   6.559   4.855   1.410  0.1550 -0.7876  1.1636
   16CHTO  H111 6578   6.417   4.961   1.377  1.6297  0.2537  0.0261
   16CHTO   C69 6579   6.521   4.776   1.639 -0.1705  0.4636  0.3138
   16CHTO  H126 6580   6.591   4.859   1.661  1.9848 -1.5306  1.2188
   16CHTO   O41 6581   6.472   4.721   1.768  0.0995  0.0694  0.4544
   16CHTO   C64 6582   6.402   4.824   1.843  0.3760 -0.1168 -0.0935
   16CHTO  H121 6583   6.473   4.907   1.865  1.1397 -1.0675  1.1186
   16CHTO   C71 6584   6.373   4.780   1.991  0.2581 -0.7637 -0.4609
   16CHTO   O47 6585   6.294   4.662   1.997  0.2486  0.5884  0.7207
   16CHTO  H104 6586   6.201   4.672   1.990  0.3170  0.2854 -0.7972
   16CHTO   O34 6587   6.595   4.666   1.576 -0.4475  0.0251  0.2014
   16CHTO   C49 6588   6.649   4.534   1.519  0.0253 -0.4222  0.2490
   16CHTO   H91 6589   6.624   4.544   1.413  0.1457 -4.0015 -0.1800
   16CHTO   C47 6590   6.572   4.415   1.573  0.1567 -0.3713 -0.0350
   16CHTO   H89 6591   6.609   4.325   1.520 -2.5584 -1.8828  0.5376
   16CHTO   O33 6592   6.432   4.420   1.561 -0.2982 -0.0152  0.8399
   16CHTO   H70 6593   6.405   4.477   1.491  1.3197 -1.2412 -0.8204
   16CHTO   C45 6594   6.604   4.391   1.729 -0.2918 -0.2421  0.2473
   16CHTO   H87 6595   6.559   4.476   1.783  1.4268 -0.6805  2.4513
   16CHTO    N8 6596   6.548   4.271   1.784 -0.6788 -1.1945  0.7938
   16CHTO   H75 6597   6.445   4.298   1.807 -0.0534  2.4634 -0.3828
   16CHTO   H76 6598   6.564   4.197   1.708  2.7560  0.2135  0.0818
   16CHTO   C43 6599   6.771   4.384   1.751 -0.0435  0.3409  0.3147
   16CHTO   H85 6600   6.792   4.395   1.858  0.9968 -3.0829  0.5261
   16CHTO   O29 6601   6.837   4.485   1.675  0.3421 -0.7033 -0.7105
   16CHTO   C50 6602   6.807   4.513   1.540 -0.4992 -0.0364  0.8564
   16CHTO   H92 6603   6.859   4.609   1.531 -0.1145 -0.2908  0.3608
   16CHTO   C54 6604   6.861   4.411   1.428  0.9136  0.2196 -0.1502
   16CHTO   O36 6605   6.996   4.434   1.407  0.0795 -0.5160  0.1312
   16CHTO   H72 6606   7.036   4.375   1.346  4.1557  3.3560 -1.2626
   16CHTO   O27 6607   6.826   4.250   1.727 -0.1752  0.5018  0.4369
   16CHTO   C37 6608   6.931   4.178   1.786  0.1131 -0.3600 -0.0517
   16CHTO   H79 6609   7.026   4.232   1.801  0.3764 -0.6816 -0.5678
   16CHTO   C38 6610   6.888   4.125   1.925 -0.0226 -0.1029 -0.0735
   16CHTO   H80 6611   6.790   4.077   1.915 -0.1979  0.2174  0.0933
   16CHTO   O31 6612   6.895   4.229   2.024  0.1103  0.4640 -0.3984
   16CHTO   H68 6613   6.845   4.217   2.103  0.2662  2.1137 -0.0285
   16CHTO   C39 6614   6.977   4.012   1.980  0.1947  0.7652  0.4208
   16CHTO   H81 6615   7.068   4.065   2.008  1.6698 -0.2193 -2.3752
   16CHTO    N7 6616   6.911   3.922   2.089 -0.6328  0.0712  0.1189
   16CHTO   H73 6617   6.886   3.973   2.181 -0.3716 -1.4287  1.0340
   16CHTO   H74 6618   6.837   3.853   2.053 -0.6098 -0.3751  0.9200
   16CHTO   C40 6619   7.043   3.919   1.871 -0.3883  0.6048 -0.8296
   16CHTO   H82 6620   6.974   3.836   1.856  1.2405 -1.1949  1.3139
   16CHTO   O26 6621   7.071   3.988   1.751 -0.0826 -0.6132 -0.0594
   16CHTO   C41 6622   6.961   4.054   1.697 -0.9248  0.7984  0.4078
   16CHTO   H83 6623   6.877   3.983   1.692 -2.2182  2.2382  1.1323
   16CHTO   C52 6624   6.993   4.090   1.558  0.1248 -0.5293 -0.0755
   16CHTO   O35 6625   7.109   4.155   1.531 -0.2256 -0.2462  0.4684
   16CHTO   H71 6626   7.185   4.100   1.541  1.0419  1.2446 -0.7654
   16CHTO   O28 6627   7.175   3.863   1.898  0.2593  0.8611  0.2878
   16CHTO   C42 6628   7.220   3.739   1.858 -0.1018 -0.0107  0.4431
   16CHTO   H84 6629   7.328   3.742   1.875 -0.1335 -2.0659  1.1987
   16CHTO   C44 6630   7.208   3.705   1.698  0.4080  0.1644  0.0494
   16CHTO   H86 6631   7.104   3.725   1.670  0.3491  0.0689  0.1991
   16CHTO   O32 6632   7.298   3.797   1.636  0.8019  0.5505  0.2467
   16CHTO   H69 6633   7.372   3.750   1.600 -0.1271  0.0097 -1.0064
   16CHTO   C48 6634   7.238   3.550   1.672 -0.5914  0.2498  0.2421
   16CHTO   H90 6635   7.342   3.541   1.703  0.2260 -1.7637 -2.8871
   16CHTO    N9 6636   7.218   3.518   1.527  0.2174 -0.6373 -0.4115
   16CHTO   H77 6637   7.130   3.571   1.495  1.4892  2.3357  0.8971
   16CHTO   H78 6638   7.297   3.552   1.463 -0.4720 -0.1550 -1.0131
   16CHTO   C51 6639   7.158   3.463   1.771  0.1385  0.0772 -0.4978
   16CHTO   H93 6640   7.053   3.483   1.752  0.5579  2.9900  0.0068
   16CHTO   O30 6641   7.196   3.504   1.905  0.2945  0.5571 -0.0345
   16CHTO   C46 6642   7.157   3.627   1.944 -0.1317  0.3942  0.4806
   16CHTO   H88 6643   7.049   3.634   1.935  0.0158  1.1407 -1.0146
   16CHTO   C53 6644   7.188   3.638   2.093 -0.4361  0.2285 -0.7404
   16CHTO   O72 6645   7.140   3.531   2.172 -0.0295 -0.0444 -0.4265
   16CHTO  H199 6646   7.172   3.450   2.136  1.2051  0.5587 -0.7080
   16CHTO   O22 6647   7.193   3.325   1.768 -0.1857 -0.7688  0.4341
   16CHTO   C31 6648   7.093   3.205   1.777  0.6255  0.1028  0.1659
   16CHTO   H59 6649   7.022   3.219   1.861  0.3229 -0.5632  0.0214
   16CHTO   C29 6650   7.011   3.193   1.650  0.1075  0.1677  0.3024
   16CHTO   H57 6651   7.091   3.195   1.574  0.4773  2.2052  0.7122
   16CHTO   O21 6652   6.942   3.318   1.626  0.2648 -0.0108 -0.3279
   16CHTO   H37 6653   6.996   3.393   1.615 -2.1459  1.7410 -0.7787
   16CHTO   C27 6654   6.927   3.063   1.644  0.2629 -0.5708  0.1815
   16CHTO   H55 6655   6.835   3.078   1.703  1.4419  0.9328  1.7030
   16CHTO    N5 6656   6.887   3.033   1.502  0.1638 -0.8799 -0.0413
   16CHTO   H43 6657   6.825   3.109   1.457  0.1038 -0.5735  0.5652
   16CHTO   H44 6658   6.974   3.013   1.440  0.0929 -1.6934  0.1124
   16CHTO   C25 6659   6.994   2.946   1.716 -0.3175  0.0699  0.6877
   16CHTO   H53 6660   7.062   2.896   1.646 -2.5225 -1.0526 -0.7363
   16CHTO   O17 6661   7.080   2.974   1.830 -0.4309  0.0393 -0.3604
   16CHTO   C32 6662   7.174   3.075   1.814  0.0788  0.1491  0.0475
   16CHTO   H60 6663   7.245   3.048   1.736 -0.0450 -0.5046  0.1572
   16CHTO   C36 6664   7.246   3.107   1.946 -0.6431  0.6877 -0.4634
   16CHTO   O25 6665   7.291   2.986   2.006  0.0529 -0.2477  0.3027
   16CHTO   H40 6666   7.223   2.951   2.060 -1.0515 -0.8404 -1.4555
   16CHTO   O15 6667   6.870   2.833   1.766  0.2384  0.3811 -0.3024
   16CHTO   C19 6668   6.751   2.848   1.856  0.2135  0.1041  0.8981
   16CHTO   H47 6669   6.744   2.749   1.903 -1.3466 -0.5870 -0.7602
   16CHTO   C20 6670   6.770   2.957   1.967  0.8036  0.7048 -0.3195
   16CHTO   H48 6671   6.788   3.056   1.922  1.4733  0.5556 -0.3837
   16CHTO   O19 6672   6.878   2.916   2.048  0.4917 -0.0817  0.4461
   16CHTO   H35 6673   6.870   2.958   2.132  1.2312  1.8594 -0.4219
   16CHTO   C21 6674   6.641   2.962   2.060  0.3876 -0.3375  0.5571
   16CHTO   H49 6675   6.632   2.875   2.125  0.0193 -0.2787  0.5838
   16CHTO    N4 6676   6.636   3.087   2.142  0.2398  0.4627  0.0684
   16CHTO   H41 6677   6.543   3.137   2.121 -0.7044 -0.9499  0.7634
   16CHTO   H42 6678   6.635   3.053   2.245 -2.6389 -1.1114 -0.4257
   16CHTO   C22 6679   6.506   2.946   1.981 -0.2633  0.1250 -0.1468
   16CHTO   H50 6680   6.467   3.038   1.939 -0.9996 -0.6297 -1.1313
   16CHTO   O14 6681   6.512   2.852   1.873 -0.1650  0.0134 -0.1025
   16CHTO   C23 6682   6.615   2.869   1.779 -0.4601 -0.1160 -0.4024
   16CHTO   H51 6683   6.614   2.968   1.732 -0.0612 -0.4738 -1.1815
   16CHTO   C34 6684   6.598   2.771   1.664 -0.0305  0.0962  0.2318
   16CHTO   O23 6685   6.489   2.796   1.572  0.2977 -0.5155  0.2067
   16CHTO   H38 6686   6.503   2.880   1.532 -3.9144  0.0149 -0.3585
   16CHTO   O16 6687   6.408   2.891   2.064  0.5467 -0.4284  0.6428
   16CHTO   C24 6688   6.264   2.945   2.031  1.5575 -0.4712  0.0660
   16CHTO   H52 6689   6.262   3.011   1.945  1.3564  1.2499  1.3691
   16CHTO   C26 6690   6.223   3.024   2.157  1.3285 -0.3600 -0.2225
   16CHTO   H54 6691   6.233   2.961   2.248  0.5887  1.6800  1.3117
   16CHTO   O20 6692   6.320   3.132   2.183  0.7927  0.5573 -0.1879
   16CHTO   H36 6693   6.409   3.104   2.172 -0.4499 -3.0320 -1.7143
   16CHTO   C30 6694   6.073   3.071   2.146 -0.0699 -0.4935  0.4071
   16CHTO   H58 6695   6.056   3.140   2.062  0.7873 -0.1235  0.5300
   16CHTO    N6 6696   6.034   3.137   2.277  0.2873  0.6556 -0.3414
   16CHTO   H45 6697   6.052   3.244   2.272 -0.7605  0.7838 -1.3569
   16CHTO   H46 6698   6.094   3.100   2.359 -1.9460 -1.9271  0.1813
   16CHTO   C33 6699   5.987   2.949   2.109 -0.2395 -0.3361  0.4283
   16CHTO   H61 6700   6.006   2.878   2.191  2.1865  0.7451  0.8537
   16CHTO   O18 6701   6.036   2.889   1.991  0.3818 -0.7415  0.8461
   16CHTO   C28 6702   6.166   2.831   1.999 -0.5007  0.1242 -0.0366
   16CHTO   H56 6703   6.174   2.759   2.080  1.3046 -2.5735 -2.4957
   16CHTO   C35 6704   6.205   2.769   1.863 -0.4263 -0.0948 -0.0368
   16CHTO   O24 6705   6.099   2.697   1.791 -0.2187 -0.3455 -0.3905
   16CHTO   H39 6706   6.016   2.739   1.782 -0.2206 -0.7350 -2.4856
   16CHTO    O9 6707   5.845   2.969   2.097 -0.1830 -0.3198  0.5341
   16CHTO   C13 6708   5.767   2.839   2.172 -0.8873  0.0136 -0.0755
   16CHTO   H26 6709   5.800   2.844   2.278 -0.2590  1.2193 -0.3193
   16CHTO   C11 6710   5.811   2.700   2.100  0.6514  0.2196 -0.4877
   16CHTO   H24 6711   5.919   2.683   2.111  0.3950 -1.0059  0.2067
   16CHTO    O8 6712   5.785   2.723   1.955 -0.1897  0.7789 -0.2108
   16CHTO    H3 6713   5.694   2.722   1.935 -0.1158  2.0716 -0.6246
   16CHTO    C9 6714   5.727   2.581   2.162  0.1122 -0.0644 -0.1738
   16CHTO   H22 6715   5.749   2.570   2.269 -0.7185  1.6823  0.1922
   16CHTO    N2 6716   5.780   2.450   2.124 -0.1931  0.0203  0.4750
   16CHTO   H10 6717   5.828   2.407   2.211  0.7397 -0.8227 -0.4471
   16CHTO   H11 6718   5.692   2.388   2.112 -0.0130  0.0703 -1.2395
   16CHTO    C7 6719   5.572   2.601   2.124  0.0038 -1.2493  0.0911
   16CHTO   H20 6720   5.522   2.571   2.218 -0.2692  0.5725  0.5351
   16CHTO    O4 6721   5.542   2.746   2.106 -0.0671 -0.2080 -0.1651
   16CHTO   C14 6722   5.614   2.841   2.192  0.4039  0.1014 -0.7198
   16CHTO   H27 6723   5.585   2.821   2.297  1.1440 -0.8952 -0.6999
   16CHTO   C18 6724   5.555   2.985   2.158  0.3471 -0.7363 -0.0290
   16CHTO   O13 6725   5.413   2.987   2.186  0.1000 -0.4508 -0.2006
   16CHTO    H7 6726   5.381   3.073   2.169 -1.4708 -0.7615  1.0473
   16CHTO    O2 6727   5.518   2.514   1.995  0.1892 -0.0512 -0.4985
   16CHTO    C1 6728   5.373   2.507   1.985  0.4153 -0.0278  0.1650
   16CHTO   H14 6729   5.346   2.444   1.897  1.6220  0.5554 -0.6414
   16CHTO    C2 6730   5.297   2.643   1.971 -0.1426  0.3859  0.3143
   16CHTO   H15 6731   5.320   2.701   2.062  3.1158 -2.2728  1.2645
   16CHTO    O6 6732   5.355   2.710   1.861 -0.2759 -0.1142 -0.0288
   16CHTO    H1 6733   5.286   2.738   1.804  0.4668 -1.4465 -1.6270
   16CHTO    C3 6734   5.139   2.605   1.951 -0.1668 -0.6945 -0.0632
   16CHTO   H16 6735   5.127   2.548   1.858  0.4344 -0.2993 -0.3879
   16CHTO    N1 6736   5.057   2.728   1.931 -0.8569  0.3890 -0.0814
   16CHTO    H8 6737   5.111   2.793   1.863 -1.2663 -1.0946 -1.8597
   16CHTO    H9 6738   5.038   2.775   2.026 -1.6488 -0.0735 -0.0029
   16CHTO    C4 6739   5.090   2.513   2.070  0.2983  0.5978  0.1459
   16CHTO   H17 6740   5.079   2.571   2.162 -0.3548 -1.7686  1.6102
   16CHTO    O1 6741   5.176   2.399   2.086 -0.6569  0.5700 -0.5447
   16CHTO    C5 6742   5.313   2.434   2.109  0.4491  0.5734 -0.1627
   16CHTO   H18 6743   5.325   2.500   2.195  3.5226  0.0816 -0.1587
   16CHTO   C16 6744   5.391   2.305   2.131 -0.0363 -0.4827 -0.7304
   16CHTO   O11 6745   5.358   2.230   2.252 -0.1644 -0.0647  0.0400
   16CHTO    H5 6746   5.316   2.151   2.224 -0.2343  0.0998 -0.3257
   16CHTO    O3 6747   4.969   2.457   2.020  0.5196  0.3973  0.2989
   16CHTO    C6 6748   4.864   2.430   2.118  0.0986  0.4771 -0.6554
   16CHTO   H19 6749   4.877   2.462   2.221 -2.6659 -1.6875  0.4344
   16CHTO    C8 6750   4.735   2.513   2.077  0.1426 -0.5872  0.3798
   16CHTO   H21 6751   4.715   2.495   1.972 -0.8320  1.7805  0.1241
   16CHTO    O7 6752   4.761   2.653   2.101  0.1753 -0.1133 -0.4546
   16CHTO    H2 6753   4.792   2.658   2.189  0.3886 -1.6590 -0.4234
   16CHTO   C12 6754   4.601   2.476   2.158  0.4293 -0.0497  0.8223
   16CHTO   H25 6755   4.616   2.513   2.262  2.0560  0.2431  0.4986
   16CHTO    N3 6756   4.480   2.543   2.092  0.1292 -0.0328 -0.2106
   16CHTO   H12 6757   4.486   2.650   2.101 -0.0331 -0.2036  1.9996
   16CHTO   H13 6758   4.490   2.523   1.986 -1.4968 -0.9938 -0.2081
   16CHTO   C15 6759   4.587   2.320   2.168 -0.2995  0.6681 -0.3813
   16CHTO   H28 6760   4.551   2.272   2.077 -1.8040  0.9087  0.0840
   16CHTO   O10 6761   4.497   2.288   2.280  0.5808 -0.1386 -0.2058
   16CHTO    H4 6762   4.419   2.248   2.245  0.8538 -0.9975  0.1417
   16CHTO    O5 6763   4.707   2.257   2.213 -0.3209  0.0191  0.2050
   16CHTO   C10 6764   4.818   2.280   2.122 -0.8107 -0.6596  0.5045
   16CHTO   H23 6765   4.797   2.253   2.018 -0.3642  1.2146 -0.0862
   16CHTO   C17 6766   4.927   2.177   2.173 -0.0613 -0.0893  0.0130
   16CHTO   O12 6767   4.998   2.218   2.292  0.0846 -0.3300 -0.0653
   16CHTO    H6 6768   5.088   2.233   2.272 -0.0741 -2.9201 -2.9819
   17CHTO  H203 6769   4.292   5.644   0.232 -0.6430  1.3805  0.4959
   17CHTO   O82 6770   4.211   5.608   0.262  0.1412 -0.4940  0.4359
   17CHTO  C123 6771   4.157   5.683   0.370 -0.6600  0.4104  0.1312
   17CHTO  H227 6772   4.080   5.620   0.417  0.2413  1.3985  3.0341
   17CHTO   O77 6773   4.268   5.707   0.458  0.3692 -0.4381  0.2565
   17CHTO  C118 6774   4.234   5.792   0.573  0.2561 -0.5535 -0.5628
   17CHTO  H222 6775   4.140   5.762   0.621  0.0923  0.1731 -0.4242
   17CHTO  C125 6776   4.349   5.784   0.674  0.4404  0.4222  0.1999
   17CHTO   O84 6777   4.318   5.855   0.794  0.1169  0.0767 -0.2500
   17CHTO  H205 6778   4.397   5.888   0.834  1.6972 -4.2832  0.5830
   17CHTO  C114 6779   4.222   5.935   0.518 -0.3479  0.3616  0.9045
   17CHTO  H218 6780   4.311   5.959   0.459 -0.4325 -0.5237  0.4021
   17CHTO  C116 6781   4.106   5.942   0.414 -0.0866  0.6984  0.0436
   17CHTO  H220 6782   4.009   5.952   0.468 -0.1902 -0.7532  0.1401
   17CHTO   O79 6783   4.124   6.063   0.333  0.5523  0.0908  0.2687
   17CHTO  H201 6784   4.193   6.060   0.270  1.8856  2.3612  1.5734
   17CHTO  C120 6785   4.102   5.822   0.315 -0.0829  0.5804 -0.0375
   17CHTO  H224 6786   4.165   5.855   0.229 -2.2581 -3.3341 -3.3202
   17CHTO   N21 6787   3.965   5.811   0.263 -0.2593  0.1169 -0.3909
   17CHTO  H211 6788   3.895   5.836   0.342  1.4420  0.6146  0.9840
   17CHTO  H212 6789   3.946   5.865   0.172 -1.8979  1.8514  0.9207
   17CHTO   O75 6790   4.196   6.025   0.628  0.4677  0.5196  0.2485
   17CHTO  C112 6791   4.225   6.173   0.612 -0.1382 -0.4071  0.0234
   17CHTO  H216 6792   4.132   6.224   0.583  0.2853 -0.1020 -0.8139
   17CHTO   O73 6793   4.324   6.186   0.509  0.4136 -0.2009  0.1187
   17CHTO  C113 6794   4.372   6.319   0.479  0.4367 -0.0797  0.1161
   17CHTO  H217 6795   4.290   6.390   0.454 -0.4136 -0.9311  0.4550
   17CHTO  C124 6796   4.467   6.304   0.361  0.2611  0.0584 -0.2056
   17CHTO   O83 6797   4.398   6.293   0.236 -0.9658 -0.0977  0.2027
   17CHTO  H204 6798   4.460   6.280   0.167 -0.7456 -3.4667  0.9451
   17CHTO  C109 6799   4.433   6.388   0.596 -0.2568 -0.1182 -0.5296
   17CHTO  H213 6800   4.525   6.331   0.617  0.2050  0.4451 -1.0138
   17CHTO  C110 6801   4.343   6.386   0.720 -0.1103  0.4723 -0.2242
   17CHTO  H214 6802   4.266   6.461   0.705  0.6196  1.2133 -0.2886
   17CHTO   O78 6803   4.430   6.424   0.827 -0.1846 -0.5170  0.5892
   17CHTO  H200 6804   4.486   6.493   0.798  0.0626 -0.0127  2.1908
   17CHTO  C111 6805   4.291   6.240   0.744 -0.3621  0.7138 -0.5352
   17CHTO  H215 6806   4.378   6.175   0.762 -0.1634  1.4698  1.3823
   17CHTO   N19 6807   4.199   6.223   0.857 -0.2447 -0.0081  0.4475
   17CHTO  H207 6808   4.248   6.282   0.933 -1.5878  1.5275  0.1423
   17CHTO  H208 6809   4.105   6.268   0.830  1.2185  2.9392  0.1538
   17CHTO   O74 6810   4.475   6.527   0.563  0.4633  0.4417 -0.3694
   17CHTO  C115 6811   4.621   6.585   0.643  0.0611  0.1452  0.8861
   17CHTO  H219 6812   4.599   6.618   0.745 -1.9984 -0.1980  0.5690
   17CHTO   O76 6813   4.737   6.461   0.644 -0.6441  0.0734  0.2315
   17CHTO  C122 6814   4.864   6.501   0.704  0.1881 -0.3619 -0.3268
   17CHTO  H226 6815   4.943   6.426   0.700 -0.0122 -0.6635  1.0585
   17CHTO  C126 6816   4.843   6.530   0.859  0.0189 -0.4590 -0.0387
   17CHTO   O85 6817   4.819   6.409   0.941  0.1831  0.3606  0.1173
   17CHTO  H206 6818   4.832   6.432   1.031  0.5664 -0.6950  0.3371
   17CHTO  C121 6819   4.921   6.638   0.640  0.6210  0.3960 -0.3861
   17CHTO  H225 6820   5.005   6.671   0.706  0.1654  2.4150 -0.7965
   17CHTO   O81 6821   4.962   6.603   0.511  0.1373 -0.0507 -0.0293
   17CHTO  H202 6822   5.043   6.642   0.484  0.8333 -2.7362 -2.0229
   17CHTO  C119 6823   4.822   6.748   0.629 -0.1241  0.1723  0.6087
   17CHTO  H223 6824   4.813   6.776   0.734  1.2259  2.7564  0.0633
   17CHTO  C117 6825   4.684   6.702   0.563 -0.2193  0.7198 -0.5689
   17CHTO  H221 6826   4.687   6.662   0.462 -1.1372 -2.0359  0.4402
   17CHTO   N20 6827   4.592   6.816   0.566  0.1141 -0.2138  0.0045
   17CHTO  H209 6828   4.634   6.899   0.511  1.4274 -2.2810 -2.2113
   17CHTO  H210 6829   4.546   6.837   0.661  0.6141  0.6262  0.0635
   17CHTO   O80 6830   4.887   6.887   0.564  0.0071  0.3988  0.3386
   17CHTO  C103 6831   4.964   6.981   0.657 -0.1930  0.5921 -0.4919
   17CHTO  H190 6832   4.949   6.947   0.759  0.0248 -0.6152 -0.8455
   17CHTO  C101 6833   5.120   6.984   0.622 -0.1039  0.6005  0.5481
   17CHTO  H188 6834   5.132   6.938   0.524  1.3928  0.4069  0.8086
   17CHTO   O68 6835   5.183   6.903   0.708  0.3173 -0.1584  0.5893
   17CHTO  H168 6836   5.167   6.815   0.678 -2.2128  0.0622  1.1939
   17CHTO   C99 6837   5.182   7.123   0.631  0.1793  0.0811 -0.5266
   17CHTO  H186 6838   5.195   7.151   0.738  0.4332 -2.4881  0.1537
   17CHTO   N17 6839   5.314   7.124   0.560 -0.1149 -0.4910 -0.0591
   17CHTO  H174 6840   5.379   7.049   0.602  0.4018 -0.3233 -0.5519
   17CHTO  H175 6841   5.360   7.222   0.551  0.9067 -0.9197  0.4289
   17CHTO   C97 6842   5.088   7.228   0.571 -0.8156 -0.0764  0.7486
   17CHTO  H184 6843   5.071   7.191   0.469  1.4181  0.5208  0.1292
   17CHTO   O64 6844   4.971   7.239   0.655 -0.8227  0.2579  0.0022
   17CHTO  C104 6845   4.892   7.121   0.629  0.1248  0.1316  0.1115
   17CHTO  H191 6846   4.860   7.126   0.525 -1.7077  1.2834  0.7029
   17CHTO  C108 6847   4.760   7.133   0.714  0.3256  0.1104 -0.0997
   17CHTO   O71 6848   4.674   7.228   0.650  0.1931 -0.5531  0.1442
   17CHTO  H171 6849   4.601   7.241   0.707  1.2721  0.6706  1.2786
   17CHTO   O62 6850   5.137   7.364   0.575  0.4879 -0.3829  0.4068
   17CHTO   C91 6851   5.086   7.446   0.467 -0.1127  0.3231  0.0373
   17CHTO  H178 6852   5.033   7.384   0.394 -2.1119  1.6227  0.3442
   17CHTO   C92 6853   5.204   7.515   0.382 -0.3601 -0.0249 -0.3274
   17CHTO  H179 6854   5.283   7.444   0.356 -1.8894 -1.3587 -1.4251
   17CHTO   O66 6855   5.147   7.563   0.256  0.2014  0.2104  0.1177
   17CHTO  H166 6856   5.216   7.570   0.192  0.0830 -2.4542 -0.3252
   17CHTO   C93 6857   5.262   7.644   0.462 -0.0336  0.5894  0.4152
   17CHTO  H180 6858   5.306   7.706   0.383  2.4853 -1.5616  0.0564
   17CHTO   N16 6859   5.380   7.616   0.550 -0.2835  0.1841 -0.2433
   17CHTO  H172 6860   5.403   7.701   0.611 -0.4734 -0.1516  0.2986
   17CHTO  H173 6861   5.461   7.585   0.485 -0.3480  1.6292 -1.0354
   17CHTO   C94 6862   5.149   7.730   0.540 -0.4247 -0.5915 -0.0715
   17CHTO  H181 6863   5.161   7.729   0.648 -2.5879  1.5010  0.2292
   17CHTO   O61 6864   5.018   7.700   0.494 -0.2135 -0.0343  0.3855
   17CHTO   C95 6865   4.982   7.563   0.514  0.3291  0.1388 -0.7081
   17CHTO  H182 6866   4.958   7.546   0.620  2.8049 -3.0814 -0.5873
   17CHTO  C106 6867   4.849   7.548   0.437 -0.2468  0.3600 -0.2911
   17CHTO   O69 6868   4.785   7.423   0.460  0.1845  0.0601 -0.2418
   17CHTO  H169 6869   4.758   7.388   0.378 -1.3054 -1.8769  1.0542
   17CHTO   O63 6870   5.169   7.886   0.497 -0.1366 -0.2154 -0.7395
   17CHTO   C96 6871   5.090   7.972   0.603 -0.3878  0.3767  0.4841
   17CHTO  H183 6872   5.037   7.903   0.669  1.3562 -2.5926 -1.1207
   17CHTO   C98 6873   4.979   8.063   0.531  0.2513 -0.0645  0.5886
   17CHTO  H185 6874   5.026   8.116   0.447 -0.8416  0.5712  0.3751
   17CHTO   O67 6875   4.887   7.979   0.461 -0.5108 -0.5134 -0.3091
   17CHTO  H167 6876   4.930   7.947   0.384  0.5141  1.7171 -0.6845
   17CHTO  C102 6877   4.902   8.155   0.630  0.2275 -0.0198  0.0026
   17CHTO  H189 6878   4.849   8.090   0.701  1.1612 -1.0094 -0.1969
   17CHTO   N18 6879   4.803   8.246   0.566  0.5159  0.2503 -0.3006
   17CHTO  H176 6880   4.723   8.194   0.515 -2.1723  2.1471  1.8332
   17CHTO  H177 6881   4.777   8.329   0.630  0.7108  0.0483  0.0405
   17CHTO  C105 6882   5.005   8.243   0.704  0.6911  0.5050  0.0416
   17CHTO  H192 6883   5.053   8.315   0.638  0.1781  1.4479  0.6897
   17CHTO   O65 6884   5.112   8.171   0.765 -0.1414 -0.7344 -0.9616
   17CHTO  C100 6885   5.176   8.072   0.684 -0.6255 -0.1032  0.4675
   17CHTO  H187 6886   5.232   8.127   0.607 -0.1600 -0.6738  0.3940
   17CHTO  C107 6887   5.288   7.991   0.761  0.0135  0.1374 -0.4071
   17CHTO   O70 6888   5.365   8.060   0.861 -0.4668  0.0066 -0.1857
   17CHTO  H170 6889   5.378   7.994   0.925  1.0543 -2.0020 -2.4762
   17CHTO   O57 6890   4.922   8.313   0.831  0.0257  0.0560  0.0510
   17CHTO   C85 6891   4.954   8.440   0.881 -0.0118  0.6191 -0.7619
   17CHTO  H157 6892   4.959   8.514   0.799 -0.4270  3.1088  1.3895
   17CHTO   C83 6893   5.102   8.432   0.931 -0.2981 -0.1726 -0.2513
   17CHTO  H155 6894   5.173   8.419   0.850  0.5458  0.5987  0.3552
   17CHTO   O56 6895   5.111   8.318   1.019  0.1896 -0.0603  0.0524
   17CHTO  H135 6896   5.052   8.345   1.086 -0.0381  1.4726 -0.7335
   17CHTO   C81 6897   5.134   8.564   1.009  0.0526  0.0822 -1.1875
   17CHTO  H153 6898   5.121   8.647   0.940  0.4158  1.2337  0.1149
   17CHTO   N14 6899   5.277   8.568   1.041  0.1506 -0.1155 -0.2642
   17CHTO  H141 6900   5.315   8.515   1.126 -0.0380  1.8191  1.0754
   17CHTO  H142 6901   5.309   8.670   1.047  1.2658 -0.6100  3.6319
   17CHTO   C79 6902   5.037   8.587   1.131 -0.2261  0.1802  0.2405
   17CHTO  H151 6903   5.058   8.688   1.166  1.2073  0.5298 -1.5415
   17CHTO   O52 6904   4.896   8.588   1.084  0.4760 -0.0908 -0.4327
   17CHTO   C86 6905   4.852   8.484   0.996  0.2044  0.5018  0.1333
   17CHTO  H158 6906   4.845   8.397   1.065 -0.2421  0.4387  0.0125
   17CHTO   C90 6907   4.710   8.508   0.949 -0.1958 -0.4547 -0.3437
   17CHTO   O60 6908   4.647   8.412   0.865  0.2409  0.2145 -0.2883
   17CHTO  H138 6909   4.708   8.404   0.794 -0.3265  2.8267 -1.1092
   17CHTO   O50 6910   5.056   8.493   1.237  0.4346  0.3308 -0.4597
   17CHTO   C73 6911   5.020   8.510   1.377  0.2166 -0.0002  1.0293
   17CHTO  H145 6912   5.016   8.618   1.400 -2.7294  0.3386 -0.8049
   17CHTO   C74 6913   5.132   8.446   1.468  0.4975 -1.1108  0.4360
   17CHTO  H146 6914   5.223   8.500   1.440 -0.1699  0.4065  1.1904
   17CHTO   O54 6915   5.104   8.478   1.606 -0.1264 -0.0524 -0.3602
   17CHTO  H133 6916   5.036   8.431   1.650  1.4793 -0.0647  2.2287
   17CHTO   C75 6917   5.131   8.289   1.426 -0.0480 -0.0088  0.1231
   17CHTO  H147 6918   5.158   8.286   1.319  1.3343 -0.0168  0.4614
   17CHTO   N13 6919   5.245   8.212   1.488  0.5044 -0.0516  0.0737
   17CHTO  H139 6920   5.341   8.225   1.441  0.3842  0.3103 -0.0727
   17CHTO  H140 6921   5.234   8.209   1.595 -1.3933  0.3135 -0.0858
   17CHTO   C76 6922   4.992   8.223   1.448  0.4364 -0.2378 -0.0656
   17CHTO  H148 6923   4.969   8.209   1.553 -0.3385 -1.2113 -0.3490
   17CHTO   O49 6924   4.878   8.306   1.383 -0.6909 -0.4258 -0.5503
   17CHTO   C77 6925   4.879   8.446   1.409 -0.3358 -0.2629 -0.5989
   17CHTO  H149 6926   4.855   8.469   1.513 -0.6533 -2.4304 -0.1690
   17CHTO   C88 6927   4.763   8.508   1.338 -0.7469 -0.8534 -0.0706
   17CHTO   O58 6928   4.632   8.473   1.410 -0.0913 -0.3247 -0.9257
   17CHTO  H136 6929   4.605   8.384   1.396  1.9116 -1.1072  0.0716
   17CHTO   O51 6930   4.994   8.090   1.357 -0.1811 -0.2627 -0.1569
   17CHTO   C78 6931   4.838   8.016   1.398 -0.0151  0.8723  0.0329
   17CHTO  H150 6932   4.768   8.092   1.438 -1.0585  1.5546 -2.9626
   17CHTO   C80 6933   4.864   7.906   1.506 -0.1520  0.7271 -0.9780
   17CHTO  H152 6934   4.956   7.849   1.481  1.5605  2.1226  1.8854
   17CHTO   O55 6935   4.896   7.975   1.627 -0.0400  0.1435 -0.1785
   17CHTO  H134 6936   4.822   8.026   1.655  0.6846  1.2458 -0.1953
   17CHTO   C84 6937   4.754   7.793   1.517 -0.3174  0.4270 -0.2166
   17CHTO  H156 6938   4.670   7.843   1.565 -0.3316 -0.1457  0.3596
   17CHTO   N15 6939   4.801   7.682   1.600  0.5387  0.1900 -0.0034
   17CHTO  H143 6940   4.861   7.715   1.682 -0.4380  0.4599  0.5984
   17CHTO  H144 6941   4.855   7.615   1.536  1.9957  0.5191  0.8587
   17CHTO   C87 6942   4.712   7.749   1.374  0.1225  0.5374  0.2918
   17CHTO  H159 6943   4.793   7.700   1.321  2.2551 -0.8757  4.6330
   17CHTO   O53 6944   4.669   7.861   1.310  0.1141  0.1585  0.1095
   17CHTO   C82 6945   4.776   7.954   1.272  0.4608 -0.2109  0.0969
   17CHTO  H154 6946   4.848   7.896   1.214  0.3566  0.0757 -0.3274
   17CHTO   C89 6947   4.719   8.072   1.181  0.3992 -0.1808 -0.1882
   17CHTO   O59 6948   4.618   8.141   1.261  0.1811  0.6785  0.5584
   17CHTO  H137 6949   4.623   8.233   1.246  0.7118  0.4010 -1.0153
   17CHTO   O45 6950   4.583   7.643   1.375  0.1342  0.0732 -0.0781
   17CHTO   C67 6951   4.441   7.675   1.398  0.0494  0.1093 -0.3242
   17CHTO  H124 6952   4.438   7.766   1.457 -2.3124 -0.5547  0.6343
   17CHTO   C65 6953   4.358   7.695   1.268  0.9813  0.9066 -0.5556
   17CHTO  H122 6954   4.433   7.666   1.194  1.6650  0.2978  0.3685
   17CHTO   O44 6955   4.327   7.829   1.264 -0.5740  0.3407 -0.4234
   17CHTO  H102 6956   4.245   7.844   1.221  0.7861  0.6252 -3.0282
   17CHTO   C63 6957   4.242   7.585   1.251  0.1482 -0.1246  0.1471
   17CHTO  H120 6958   4.287   7.487   1.241 -0.6438 -0.5750  0.8869
   17CHTO   N11 6959   4.169   7.592   1.117 -0.3955  0.4755  0.5867
   17CHTO  H108 6960   4.075   7.641   1.129 -1.7908 -1.6490 -1.1799
   17CHTO  H109 6961   4.234   7.640   1.047 -0.3070  0.1944  0.4724
   17CHTO   C61 6962   4.153   7.573   1.381 -0.0861 -0.1863  0.7115
   17CHTO  H118 6963   4.115   7.471   1.387  1.0210 -0.7179 -0.8845
   17CHTO   O40 6964   4.230   7.595   1.499 -0.3531 -0.1098  0.4110
   17CHTO   C68 6965   4.376   7.570   1.489  0.3793 -0.4832 -0.2215
   17CHTO  H125 6966   4.381   7.466   1.453  0.3041  0.2014 -2.2478
   17CHTO   C72 6967   4.439   7.568   1.634 -0.5280  0.6575 -0.5815
   17CHTO   O48 6968   4.372   7.474   1.712 -0.0449  0.1304 -0.4079
   17CHTO  H105 6969   4.416   7.392   1.701 -2.0773 -0.8147 -1.7753
   17CHTO   O38 6970   4.042   7.667   1.374 -0.0423  0.0819 -0.0715
   17CHTO   C55 6971   3.926   7.664   1.458 -0.3292 -0.9802  0.0249
   17CHTO  H112 6972   3.954   7.622   1.555  0.5064  0.8514  0.5825
   17CHTO   C56 6973   3.813   7.581   1.389 -0.9993 -0.4195  0.2186
   17CHTO  H113 6974   3.807   7.631   1.291  0.0478  0.4619  0.5957
   17CHTO   O42 6975   3.847   7.442   1.364 -0.4009 -0.0728  0.2605
   17CHTO  H100 6976   3.774   7.409   1.315  0.0360  0.4247 -0.7474
   17CHTO   C57 6977   3.673   7.597   1.464 -0.4874 -0.2891  0.3555
   17CHTO  H114 6978   3.690   7.544   1.558  0.1686 -1.5940 -0.4770
   17CHTO   N10 6979   3.565   7.523   1.390  0.5407  0.1098  0.4202
   17CHTO  H106 6980   3.603   7.440   1.332 -0.0374  1.1787 -1.5093
   17CHTO  H107 6981   3.482   7.494   1.453 -1.4604 -0.7474 -2.5139
   17CHTO   C58 6982   3.649   7.744   1.500  0.3163 -0.4546 -0.0525
   17CHTO  H115 6983   3.620   7.794   1.406 -0.2775  0.4242  0.5902
   17CHTO   O37 6984   3.757   7.803   1.570 -0.2234  0.1269  1.5052
   17CHTO   C59 6985   3.880   7.810   1.492  0.3538 -0.2330 -0.1586
   17CHTO  H116 6986   3.857   7.856   1.396 -0.3081  0.0893  0.1514
   17CHTO   C70 6987   3.982   7.886   1.574 -0.3556  0.0805  1.1529
   17CHTO   O46 6988   4.104   7.925   1.509 -0.3556  0.0190 -0.5996
   17CHTO  H103 6989   4.183   7.897   1.552 -1.3325  1.7538  2.4615
   17CHTO   O39 6990   3.517   7.738   1.609  0.4521 -0.3912  0.0016
   17CHTO   C60 6991   3.467   7.859   1.662  0.3066 -0.6698 -0.2057
   17CHTO  H117 6992   3.544   7.934   1.676  0.7418 -1.5320  2.2624
   17CHTO   C62 6993   3.349   7.910   1.571  0.4645  0.1085  0.1182
   17CHTO  H119 6994   3.387   7.940   1.471  0.1735  1.5215  0.4229
   17CHTO   O43 6995   3.256   7.798   1.543  0.5634 -0.4778 -0.2648
   17CHTO  H101 6996   3.307   7.726   1.512 -0.4768 -1.6311  0.6608
   17CHTO   C66 6997   3.283   8.040   1.637  0.2723 -0.5672  0.3238
   17CHTO  H123 6998   3.361   8.110   1.665 -0.7412  0.2750  1.0646
   17CHTO   N12 6999   3.190   8.109   1.540  0.3462 -0.0822  0.0904
   17CHTO  H110 7000   3.090   8.105   1.581  1.0911  1.7297  2.1316
   17CHTO  H111 7001   3.210   8.214   1.551 -1.8290  0.5080 -1.1782
   17CHTO   C69 7002   3.219   8.001   1.774  0.5697 -0.6047 -0.2593
   17CHTO  H126 7003   3.147   7.917   1.763 -0.0282  0.0549 -1.4284
   17CHTO   O41 7004   3.335   7.964   1.856 -0.2208 -0.5309  0.2069
   17CHTO   C64 7005   3.413   7.833   1.807 -0.2777 -0.4747  0.1573
   17CHTO  H121 7006   3.346   7.745   1.804  1.5563 -1.9145  0.6074
   17CHTO   C71 7007   3.530   7.797   1.899  0.9189  0.2540 -0.0585
   17CHTO   O47 7008   3.635   7.891   1.920 -1.2013  0.3128  0.6217
   17CHTO  H104 7009   3.706   7.851   1.874 -2.2304 -0.3915 -0.3742
   17CHTO   O34 7010   3.143   8.112   1.830 -0.1707  0.5929  0.7410
   17CHTO   C49 7011   3.070   8.231   1.900  0.6630  0.2063  0.0734
   17CHTO   H91 7012   3.148   8.291   1.944  2.4405 -2.1270  0.2121
   17CHTO   C47 7013   2.967   8.163   2.008  0.7135 -0.1160  0.0766
   17CHTO   H89 7014   2.925   8.259   2.046 -0.8538 -1.3719  1.5641
   17CHTO   O33 7015   3.030   8.094   2.116  0.1576 -0.2466 -0.1514
   17CHTO   H70 7016   3.109   8.138   2.140 -1.1500  0.4039  3.2539
   17CHTO   C45 7017   2.851   8.077   1.938 -0.4892  0.4087  0.3769
   17CHTO   H87 7018   2.891   7.975   1.921 -0.3828  0.6397 -0.7878
   17CHTO    N8 7019   2.735   8.067   2.031  0.2416 -0.0157 -0.0233
   17CHTO   H75 7020   2.675   8.156   2.042  1.5507  0.8749 -0.0012
   17CHTO   H76 7021   2.671   7.986   1.998 -2.3082  1.8342  0.2540
   17CHTO   C43 7022   2.833   8.119   1.783  0.5207 -0.1571 -0.5300
   17CHTO   H85 7023   2.916   8.071   1.731  1.6428  1.8501 -0.6511
   17CHTO   O29 7024   2.849   8.266   1.773  0.6223  0.1479 -0.2630
   17CHTO   C50 7025   2.982   8.311   1.793  0.0735 -1.1435  0.0390
   17CHTO   H92 7026   3.042   8.312   1.701 -0.1411 -0.1268 -0.1013
   17CHTO   C54 7027   2.972   8.459   1.837  0.0969  1.0985 -0.3593
   17CHTO   O36 7028   2.958   8.558   1.731 -0.3079 -0.0965 -0.3823
   17CHTO   H72 7029   3.038   8.580   1.688  0.5994  0.5590  1.5870
   17CHTO   O27 7030   2.714   8.079   1.722  0.7704  0.1874 -0.0428
   17CHTO   C37 7031   2.695   8.025   1.589 -0.1644 -0.3677  0.0087
   17CHTO   H79 7032   2.588   8.039   1.565 -0.1835 -0.5614 -0.0265
   17CHTO   C38 7033   2.780   8.105   1.487  1.0884 -0.4659 -0.2346
   17CHTO   H80 7034   2.884   8.095   1.524  1.0160 -0.4512 -0.0230
   17CHTO   O31 7035   2.743   8.241   1.481  0.4040  0.2998  0.0510
   17CHTO   H68 7036   2.816   8.292   1.451  1.5479 -0.9427  0.6537
   17CHTO   C39 7037   2.774   8.034   1.348  0.3161  0.1886 -0.0546
   17CHTO   H81 7038   2.672   8.027   1.310  0.8793 -0.0369 -1.5598
   17CHTO    N7 7039   2.865   8.085   1.245 -0.0411 -0.0278  0.4559
   17CHTO   H73 7040   2.966   8.071   1.281 -0.7710  0.3120  2.6596
   17CHTO   H74 7041   2.850   8.191   1.229 -1.3475 -0.0624  1.4340
   17CHTO   C40 7042   2.807   7.879   1.359  0.4874  0.3999 -0.5486
   17CHTO   H82 7043   2.909   7.850   1.385  0.0986 -0.8342 -0.3714
   17CHTO   O26 7044   2.715   7.824   1.450 -0.1363  0.2652 -0.4969
   17CHTO   C41 7045   2.731   7.869   1.593 -0.2992  0.5573 -0.5188
   17CHTO   H83 7046   2.839   7.866   1.617 -0.2334  1.7007 -0.6106
   17CHTO   C52 7047   2.637   7.776   1.674 -0.3196 -0.0755  0.2094
   17CHTO   O35 7048   2.664   7.790   1.827  0.1877  0.1230  0.7664
   17CHTO   H71 7049   2.629   7.868   1.865  0.1648  0.1518  0.6881
   17CHTO   O28 7050   2.769   7.800   1.241  0.2578  0.2511 -0.2388
   17CHTO   C42 7051   2.834   7.690   1.178  0.0270 -0.4786  0.1582
   17CHTO   H84 7052   2.758   7.649   1.111  1.2317 -0.7552 -1.0801
   17CHTO   C44 7053   2.882   7.578   1.275 -0.5814 -0.3799 -0.7130
   17CHTO   H86 7054   2.959   7.617   1.340 -0.0403 -0.1759 -1.4709
   17CHTO   O32 7055   2.775   7.533   1.360 -0.2432 -0.4318  0.0803
   17CHTO   H69 7056   2.748   7.445   1.343 -2.2251  0.5927 -2.5180
   17CHTO   C48 7057   2.956   7.455   1.199  0.2734 -0.2309 -0.2892
   17CHTO   H90 7058   2.881   7.399   1.142  1.8581 -1.5270 -1.1607
   17CHTO    N9 7059   3.019   7.355   1.295  0.1051 -0.8279  0.1966
   17CHTO   H77 7060   2.954   7.331   1.378  0.3797 -1.8346  0.1265
   17CHTO   H78 7061   3.114   7.397   1.325 -1.0195  2.6790 -1.0198
   17CHTO   C51 7062   3.058   7.509   1.095 -0.0863  0.9218 -0.4259
   17CHTO   H93 7063   3.147   7.552   1.141 -0.1523 -1.4692  2.0860
   17CHTO   O30 7064   2.992   7.602   1.013 -1.0325  0.7803  0.3262
   17CHTO   C46 7065   2.947   7.732   1.082  0.1712 -0.0936 -0.2085
   17CHTO   H88 7066   3.036   7.769   1.133 -1.1663  1.9747  0.6690
   17CHTO   C53 7067   2.904   7.834   0.968  0.8706 -0.6598 -0.0545
   17CHTO   O72 7068   2.986   7.866   0.853 -0.0520  0.7604 -0.2777
   17CHTO  H199 7069   3.018   7.788   0.814 -0.0124  0.4403  0.3871
   17CHTO   O22 7070   3.091   7.400   1.007 -0.3774  0.4116 -0.2462
   17CHTO   C31 7071   3.221   7.350   0.966  0.1283 -0.1924 -0.7480
   17CHTO   H59 7072   3.288   7.365   1.053 -1.2649  2.1783 -0.0575
   17CHTO   C29 7073   3.216   7.193   0.940  0.3547  0.0339  0.4951
   17CHTO   H57 7074   3.133   7.186   0.868 -0.6088  2.2488  1.3399
   17CHTO   O21 7075   3.193   7.127   1.067  0.4011 -0.0513  0.3181
   17CHTO   H37 7076   3.181   7.035   1.056  0.3113 -0.3575  2.7451
   17CHTO   C27 7077   3.350   7.141   0.867  0.3240  0.1285  0.3343
   17CHTO   H55 7078   3.434   7.153   0.937 -0.7679  0.0976  1.6632
   17CHTO    N5 7079   3.346   7.000   0.826  0.2062  0.0366  0.2591
   17CHTO   H43 7080   3.380   6.988   0.725 -1.8629 -1.7869 -0.2651
   17CHTO   H44 7081   3.405   6.930   0.884  1.3528  0.4290 -0.4287
   17CHTO   C25 7082   3.385   7.238   0.750 -0.2585  0.2035 -0.4195
   17CHTO   H53 7083   3.316   7.218   0.667 -1.2345  1.2901  0.1207
   17CHTO   O17 7084   3.402   7.374   0.797 -0.0740 -0.0936 -0.2082
   17CHTO   C32 7085   3.285   7.435   0.856 -0.0990 -0.5133  0.3859
   17CHTO   H60 7086   3.211   7.456   0.779 -0.6464 -0.1193  1.0153
   17CHTO   C36 7087   3.338   7.569   0.907 -0.0989 -1.2424  0.2725
   17CHTO   O25 7088   3.388   7.652   0.808  0.1409  0.0651 -0.2292
   17CHTO   H40 7089   3.320   7.661   0.744  0.3851  0.3543 -0.4465
   17CHTO   O15 7090   3.535   7.214   0.682 -0.3263 -0.1253 -0.6754
   17CHTO   C19 7091   3.649   7.302   0.661  0.8408 -0.1613 -0.3977
   17CHTO   H47 7092   3.723   7.223   0.640 -2.2578 -2.5105 -2.9670
   17CHTO   C20 7093   3.614   7.424   0.559 -0.0353 -1.2277 -0.2368
   17CHTO   H48 7094   3.521   7.476   0.585  0.4307 -0.7672  0.5286
   17CHTO   O19 7095   3.590   7.369   0.428  0.4233 -0.3577  0.5549
   17CHTO   H35 7096   3.523   7.303   0.428 -0.7560  0.7801 -1.7529
   17CHTO   C21 7097   3.732   7.533   0.555 -0.5860  0.4611  0.3137
   17CHTO   H49 7098   3.820   7.492   0.505 -0.8277 -1.0240  1.0627
   17CHTO    N4 7099   3.700   7.652   0.476  0.1076 -0.0851 -0.3710
   17CHTO   H41 7100   3.598   7.672   0.503  0.5428  0.2346  1.0653
   17CHTO   H42 7101   3.702   7.639   0.368 -0.1439  0.4340 -0.4401
   17CHTO   C22 7102   3.778   7.572   0.702  0.3894  0.4155  0.7984
   17CHTO   H50 7103   3.689   7.623   0.739  0.7133  2.5322 -1.2118
   17CHTO   O14 7104   3.809   7.454   0.775  0.1535 -0.4705 -0.5518
   17CHTO   C23 7105   3.701   7.361   0.795  0.8342  0.6217  0.0290
   17CHTO   H51 7106   3.624   7.420   0.846 -0.4684  1.1871 -2.5083
   17CHTO   C34 7107   3.768   7.265   0.897 -0.1493 -0.0551 -0.3694
   17CHTO   O23 7108   3.674   7.157   0.936 -0.0637  0.1385 -0.5480
   17CHTO   H38 7109   3.586   7.190   0.945 -0.0621 -0.2228  0.9413
   17CHTO   O16 7110   3.893   7.653   0.715 -0.1457 -0.2936 -0.4786
   17CHTO   C24 7111   3.930   7.724   0.855  0.0488 -0.3366  0.0525
   17CHTO   H52 7112   3.985   7.654   0.918  0.0925 -0.8542 -0.5626
   17CHTO   C26 7113   3.801   7.760   0.935 -0.2063 -0.4144 -0.7831
   17CHTO   H54 7114   3.733   7.821   0.872 -2.5788 -0.5718  1.5699
   17CHTO   O20 7115   3.723   7.642   0.979 -0.5767  0.2450  0.2478
   17CHTO   H36 7116   3.767   7.580   1.035 -1.7361  0.1170  1.0353
   17CHTO   C30 7117   3.832   7.854   1.058  0.2038  0.1869 -0.9010
   17CHTO   H58 7118   3.890   7.798   1.133 -0.3906  2.9493  1.6757
   17CHTO    N6 7119   3.707   7.887   1.136  0.2794  0.0541  0.1171
   17CHTO   H45 7120   3.662   7.802   1.186 -0.1451 -1.0742 -2.1094
   17CHTO   H46 7121   3.729   7.963   1.209 -1.9420  1.2538 -0.4116
   17CHTO   C33 7122   3.926   7.972   1.015  0.3658  0.1222  0.5184
   17CHTO   H61 7123   3.878   8.035   0.938  1.3502  0.6455  0.3250
   17CHTO   O18 7124   4.049   7.919   0.953  0.1892 -0.1476  0.2986
   17CHTO   C28 7125   4.025   7.844   0.830  0.1291 -0.2416 -0.7871
   17CHTO   H56 7126   3.978   7.908   0.756 -0.5329 -1.5002 -1.4770
   17CHTO   C35 7127   4.153   7.797   0.775 -0.1767 -0.6728 -0.0268
   17CHTO   O24 7128   4.150   7.732   0.650 -0.7096 -0.0494  0.0482
   17CHTO   H39 7129   4.192   7.648   0.651  0.9495  0.7581 -0.8776
   17CHTO    O9 7130   3.955   8.062   1.119 -0.2377  0.6419 -0.1330
   17CHTO   C13 7131   4.039   8.181   1.058 -0.8708  0.3327  0.1341
   17CHTO   H26 7132   4.046   8.173   0.947  0.7893 -0.6865  0.2904
   17CHTO   C11 7133   4.184   8.180   1.117  0.5539 -0.5069 -0.8621
   17CHTO   H24 7134   4.236   8.086   1.095  1.0166 -0.6016  0.5919
   17CHTO    O8 7135   4.177   8.197   1.263  0.1198  0.2660  0.0331
   17CHTO    H3 7136   4.243   8.140   1.298 -0.3416 -1.6907 -2.1437
   17CHTO    C9 7137   4.259   8.292   1.045  0.1442  0.3992  0.1377
   17CHTO   H22 7138   4.247   8.275   0.937  1.0908 -0.0417  0.0971
   17CHTO    N2 7139   4.407   8.286   1.059  0.5727 -0.5129  0.0404
   17CHTO   H10 7140   4.447   8.375   1.107  0.5101 -0.7615  0.5525
   17CHTO   H11 7141   4.451   8.271   0.961  1.3049  1.3141  0.0592
   17CHTO    C7 7142   4.193   8.441   1.086 -0.3534 -0.4741  0.0109
   17CHTO   H20 7143   4.216   8.493   0.991  0.5868  2.3321  1.7324
   17CHTO    O4 7144   4.054   8.443   1.087 -0.5113 -0.7672 -0.5094
   17CHTO   C14 7145   3.974   8.329   1.086 -0.4698 -0.7679  0.5625
   17CHTO   H27 7146   3.908   8.362   1.003  0.2285  1.0193  0.6831
   17CHTO   C18 7147   3.884   8.342   1.215 -0.2274  1.2191 -0.2010
   17CHTO   O13 7148   3.770   8.263   1.221  0.2479  0.0543 -0.1068
   17CHTO    H7 7149   3.791   8.186   1.271  3.0491  2.6859  2.9869
   17CHTO    O2 7150   4.253   8.502   1.224 -0.3828 -0.3704  0.2434
   17CHTO    C1 7151   4.280   8.648   1.222  0.0835 -0.5440 -0.7794
   17CHTO   H14 7152   4.210   8.705   1.158 -0.0139  0.1427 -0.0686
   17CHTO    C2 7153   4.426   8.689   1.176  0.1769 -0.4325 -0.2504
   17CHTO   H15 7154   4.491   8.622   1.233 -1.1734 -2.1805 -0.7315
   17CHTO    O6 7155   4.440   8.658   1.037 -0.1872 -0.3554 -0.0089
   17CHTO    H1 7156   4.532   8.656   1.017 -0.2819 -0.9453 -0.3990
   17CHTO    C3 7157   4.461   8.839   1.210 -0.2644 -0.3257 -0.2526
   17CHTO   H16 7158   4.413   8.910   1.140  0.0380 -0.1594 -0.2968
   17CHTO    N1 7159   4.612   8.865   1.187 -1.1292 -0.2296 -0.8632
   17CHTO    H8 7160   4.662   8.898   1.277 -0.5214  2.7605 -2.2593
   17CHTO    H9 7161   4.628   8.934   1.106  1.6560 -1.8685 -1.8004
   17CHTO    C4 7162   4.412   8.883   1.354  0.0906 -1.5972  0.4613
   17CHTO   H17 7163   4.478   8.835   1.426  1.5100  1.0393  0.9690
   17CHTO    O1 7164   4.279   8.843   1.368  0.2291  0.4633  0.5462
   17CHTO    C5 7165   4.254   8.702   1.366  0.8461  0.8003 -0.1224
   17CHTO   H18 7166   4.318   8.641   1.431  1.3866 -0.2021 -1.5547
   17CHTO   C16 7167   4.105   8.685   1.411 -0.2929 -0.1496  0.2616
   17CHTO   O11 7168   4.078   8.552   1.436 -0.9272 -0.0826 -0.2325
   17CHTO    H5 7169   4.112   8.500   1.365 -1.8524 -2.2598  0.8772
   17CHTO    O3 7170   4.423   9.025   1.372  0.4326  0.1788  0.5839
   17CHTO    C6 7171   4.420   9.094   1.498 -0.0657 -0.3344 -0.6835
   17CHTO   H19 7172   4.363   9.186   1.492  0.4427 -0.1181 -2.5771
   17CHTO    C8 7173   4.353   9.016   1.609  0.2735 -0.3946 -0.8739
   17CHTO   H21 7174   4.398   8.917   1.610 -1.4736 -1.2043 -0.2909
   17CHTO    O7 7175   4.212   9.007   1.571 -0.0493  0.1311 -0.2107
   17CHTO    H2 7176   4.171   8.973   1.649  0.4776 -0.6587 -0.2837
   17CHTO   C12 7177   4.376   9.085   1.753  0.5318  0.2059  0.1474
   17CHTO   H25 7178   4.315   9.178   1.761 -0.1347 -0.0668 -1.5005
   17CHTO    N3 7179   4.316   9.006   1.867  0.1538 -0.3781  0.0522
   17CHTO   H12 7180   4.387   8.931   1.899  1.8218  1.3620  0.5190
   17CHTO   H13 7181   4.269   9.075   1.936 -0.5831  1.0152 -1.8005
   17CHTO   C15 7182   4.530   9.127   1.773  0.6242  0.6810 -0.7664
   17CHTO   H28 7183   4.594   9.043   1.801  0.3978  0.6824 -0.2425
   17CHTO   O10 7184   4.552   9.232   1.894  0.4057 -0.5443 -0.9285
   17CHTO    H4 7185   4.528   9.199   1.979 -1.0038  1.3685 -0.5720
   17CHTO    O5 7186   4.575   9.204   1.658 -0.3999 -0.0410 -0.1947
   17CHTO   C10 7187   4.568   9.140   1.533 -1.0574  0.5753 -0.6063
   17CHTO   H23 7188   4.631   9.051   1.532 -0.8034  0.7393  0.8827
   17CHTO   C17 7189   4.632   9.219   1.421 -0.1715 -0.0760 -0.2241
   17CHTO   O12 7190   4.554   9.325   1.358 -0.2620  0.0995 -0.4434
   17CHTO    H6 7191   4.497   9.364   1.422 -1.3912 -0.5589 -1.0302
   18CHTO  H203 7192   5.637   8.833   2.110  0.7012  0.4574 -0.0551
   18CHTO   O82 7193   5.713   8.778   2.115  0.2933 -0.1084 -0.0762
   18CHTO  C123 7194   5.745   8.720   1.984  0.4245 -0.1162 -0.3646
   18CHTO  H227 7195   5.678   8.767   1.911 -0.3669  0.8612  0.9573
   18CHTO   O77 7196   5.881   8.770   1.956 -0.7882 -0.4840  0.0363
   18CHTO  C118 7197   5.924   8.762   1.815  0.3123  0.5814 -0.2767
   18CHTO  H222 7198   5.846   8.817   1.760  3.2202  2.6369 -2.5204
   18CHTO  C125 7199   6.057   8.840   1.797  0.8072  0.0795  0.1322
   18CHTO   O84 7200   6.164   8.785   1.871 -0.4524 -0.1797  0.4912
   18CHTO  H205 7201   6.247   8.826   1.858 -0.1370  0.5133  4.1161
   18CHTO  C114 7202   5.919   8.617   1.766 -0.1645 -0.0689 -0.6588
   18CHTO  H218 7203   6.003   8.563   1.811  0.1124 -1.0187 -2.2701
   18CHTO  C116 7204   5.789   8.534   1.810 -0.0107 -0.2608 -0.2540
   18CHTO  H220 7205   5.705   8.556   1.740 -2.4115 -0.4051  2.5033
   18CHTO   O79 7206   5.816   8.393   1.797 -0.3580 -0.3496 -0.5925
   18CHTO  H201 7207   5.887   8.374   1.856 -0.2661  0.8650 -0.2846
   18CHTO  C120 7208   5.741   8.563   1.957  0.0915 -0.3976 -0.3613
   18CHTO  H224 7209   5.811   8.513   2.027 -0.5117  0.3632  0.7983
   18CHTO   N21 7210   5.599   8.521   1.976  0.2472 -0.3122  0.0485
   18CHTO  H211 7211   5.576   8.481   2.074 -0.9906 -0.2369 -0.1993
   18CHTO  H212 7212   5.535   8.604   1.950 -0.7618 -0.8490  0.8108
   18CHTO   O75 7213   5.951   8.624   1.628  0.4136  0.2452 -0.5197
   18CHTO  C112 7214   6.086   8.532   1.567 -0.3232  0.3235  0.1605
   18CHTO  H216 7215   6.107   8.442   1.627 -1.8108 -0.5919 -0.6809
   18CHTO   O73 7216   6.196   8.625   1.574 -0.0795  0.5266 -0.2494
   18CHTO  C113 7217   6.307   8.608   1.490  0.3328 -0.0513 -0.1152
   18CHTO  H217 7218   6.369   8.520   1.516 -0.6883 -0.4815  0.9020
   18CHTO  C124 7219   6.390   8.731   1.520 -0.5275  0.2535 -0.3269
   18CHTO   O83 7220   6.425   8.737   1.657  0.1213  0.4521 -0.0647
   18CHTO  H204 7221   6.395   8.814   1.702  0.8994 -0.4557  2.1278
   18CHTO  C109 7222   6.267   8.599   1.334 -0.4447  0.5715  0.0045
   18CHTO  H213 7223   6.200   8.684   1.315 -2.9256 -0.7192  2.6156
   18CHTO  C110 7224   6.178   8.466   1.328  0.5491  0.7560  0.4569
   18CHTO  H214 7225   6.219   8.377   1.375 -1.8517 -0.1671  0.8890
   18CHTO   O78 7226   6.135   8.446   1.190 -0.6221  0.1678  0.1537
   18CHTO  H200 7227   6.191   8.445   1.115 -0.6688  1.4105  0.0990
   18CHTO  C111 7228   6.055   8.491   1.416  0.7630  0.9949  0.1916
   18CHTO  H215 7229   5.997   8.575   1.377 -2.5614 -1.4229 -0.3009
   18CHTO   N19 7230   5.955   8.380   1.426 -0.5096 -0.2754  0.5575
   18CHTO  H207 7231   5.936   8.343   1.326 -1.3084  1.6764 -0.0363
   18CHTO  H208 7232   5.861   8.424   1.456  0.0893 -0.2797  2.4742
   18CHTO   O74 7233   6.380   8.604   1.242  0.0149  0.6967  0.4894
   18CHTO  C115 7234   6.346   8.673   1.102  0.1628  0.1956  0.5944
   18CHTO  H219 7235   6.240   8.659   1.078  0.7710 -5.4655  0.5484
   18CHTO   O76 7236   6.375   8.838   1.105 -0.4797 -0.5545  0.1107
   18CHTO  C122 7237   6.362   8.887   0.970 -0.3721  0.6330  0.0392
   18CHTO  H226 7238   6.399   8.989   0.971  1.1621  0.1048 -1.3567
   18CHTO  C126 7239   6.207   8.906   0.941  0.2060  0.5664 -0.0833
   18CHTO   O85 7240   6.179   8.954   0.805  0.3182  0.2289 -0.0774
   18CHTO  H206 7241   6.225   9.036   0.797 -0.0022  0.4062 -0.1554
   18CHTO  C121 7242   6.437   8.810   0.856  0.1717 -0.2506  0.6616
   18CHTO  H225 7243   6.410   8.865   0.763 -2.2141 -0.1077  1.3949
   18CHTO   O81 7244   6.577   8.814   0.870  0.2366 -0.2428  0.1991
   18CHTO  H202 7245   6.616   8.761   0.936  1.4803  0.0771 -0.2606
   18CHTO  C119 7246   6.402   8.663   0.843 -1.3004 -0.0873  0.0032
   18CHTO  H223 7247   6.301   8.671   0.804 -1.5550 -0.3821  0.5962
   18CHTO  C117 7248   6.428   8.598   0.988 -0.0363 -0.4690 -0.8007
   18CHTO  H221 7249   6.533   8.607   1.017  0.5856 -1.2571 -2.7767
   18CHTO   N20 7250   6.408   8.450   0.983  0.1870 -0.3092 -0.0023
   18CHTO  H209 7251   6.352   8.405   1.063 -0.7995  2.4158  0.8971
   18CHTO  H210 7252   6.346   8.429   0.897 -1.7579 -0.0679  1.3141
   18CHTO   O80 7253   6.495   8.594   0.706  0.5819  0.1105  0.3705
   18CHTO  C103 7254   6.418   8.540   0.579  0.0963  0.0272 -0.0591
   18CHTO  H190 7255   6.481   8.481   0.511 -0.3623 -1.9997  1.2460
   18CHTO  C101 7256   6.299   8.437   0.624  0.7241 -0.5237  0.2401
   18CHTO  H188 7257   6.238   8.491   0.695  2.6843  2.2390 -0.1161
   18CHTO   O68 7258   6.363   8.322   0.694 -0.8567 -0.4189 -0.9187
   18CHTO  H168 7259   6.421   8.359   0.757 -1.7409  0.8538 -0.8339
   18CHTO   C99 7260   6.199   8.401   0.508  0.3173  0.0999  0.2067
   18CHTO  H186 7261   6.252   8.354   0.423 -0.0562 -1.0105  0.5850
   18CHTO   N17 7262   6.082   8.318   0.549  0.0236 -0.1171  0.7362
   18CHTO  H174 7263   6.117   8.235   0.609 -1.4855 -1.9371 -0.8255
   18CHTO  H175 7264   6.000   8.374   0.592 -0.0435 -0.5888  1.2329
   18CHTO   C97 7265   6.162   8.539   0.455 -0.6243 -0.0743 -0.3107
   18CHTO  H184 7266   6.110   8.592   0.537 -0.0463  0.5281 -0.3349
   18CHTO   O64 7267   6.277   8.607   0.401  0.1546 -0.1412 -0.1915
   18CHTO  C104 7268   6.362   8.661   0.498  0.9754 -0.2893  0.4388
   18CHTO  H191 7269   6.303   8.722   0.566  1.3626 -1.6658  2.0648
   18CHTO  C108 7270   6.476   8.750   0.440  1.4012  0.5548 -0.3317
   18CHTO   O71 7271   6.427   8.834   0.338  0.6102  0.1443  0.0704
   18CHTO  H171 7272   6.494   8.890   0.302  2.2416 -0.8629  1.4825
   18CHTO   O62 7273   6.079   8.527   0.339  0.0712 -0.0851  0.1827
   18CHTO   C91 7274   5.948   8.592   0.336  0.0307  0.5610  0.9411
   18CHTO  H178 7275   5.898   8.562   0.428 -0.4487  3.0756  1.5372
   18CHTO   C92 7276   5.864   8.529   0.223  0.7155 -0.7069 -0.5646
   18CHTO  H179 7277   5.898   8.573   0.128  0.6386 -1.1497 -0.8011
   18CHTO   O66 7278   5.879   8.384   0.225 -0.4886 -0.2431 -0.1280
   18CHTO  H166 7279   5.822   8.350   0.291 -0.2175  1.8205  1.2100
   18CHTO   C93 7280   5.712   8.580   0.247 -0.8048 -0.2357 -0.7716
   18CHTO  H180 7281   5.673   8.545   0.343 -1.6509  0.3036 -0.9062
   18CHTO   N16 7282   5.612   8.541   0.145  0.0311 -0.2923 -0.4374
   18CHTO  H172 7283   5.607   8.433   0.149 -0.9673 -0.2042  1.7779
   18CHTO  H173 7284   5.515   8.568   0.185  0.5821  2.3924 -0.8228
   18CHTO   C94 7285   5.707   8.743   0.241 -0.2800 -0.1453  0.6512
   18CHTO  H181 7286   5.746   8.785   0.148 -0.5338  0.1506  0.6792
   18CHTO   O61 7287   5.798   8.800   0.334  0.5541  0.4983  0.8815
   18CHTO   C95 7288   5.933   8.751   0.317 -0.1788 -0.2982 -0.3584
   18CHTO  H182 7289   5.967   8.774   0.216 -1.1002  0.3949 -0.5152
   18CHTO  C106 7290   6.020   8.836   0.411  0.1930 -0.6036  0.5167
   18CHTO   O69 7291   5.997   8.801   0.549 -1.0654  0.3078  0.2992
   18CHTO  H169 7292   5.909   8.776   0.567 -1.0460  0.2062  0.2513
   18CHTO   O63 7293   5.559   8.804   0.288  0.0385  0.2385  0.6461
   18CHTO   C96 7294   5.527   8.940   0.226  0.0308  0.1868 -0.5679
   18CHTO  H183 7295   5.580   8.940   0.131  3.2099 -0.4897  1.1547
   18CHTO   C98 7296   5.569   9.071   0.298 -0.6430  0.1498  0.2745
   18CHTO  H185 7297   5.531   9.063   0.401 -0.2369  2.4543  0.6181
   18CHTO   O67 7298   5.707   9.083   0.313  0.1626 -0.1117  0.1537
   18CHTO  H167 7299   5.764   9.108   0.243  0.7133  0.3571  0.7631
   18CHTO  C102 7300   5.510   9.206   0.234  0.2073 -0.1172  0.0789
   18CHTO  H189 7301   5.587   9.243   0.165 -0.3698  0.8655 -0.0594
   18CHTO   N18 7302   5.495   9.308   0.340  0.3943  0.1550 -0.1656
   18CHTO  H176 7303   5.549   9.401   0.333  1.5451 -0.3516  1.4616
   18CHTO  H177 7304   5.514   9.260   0.436 -2.2196 -0.0992  0.2513
   18CHTO  C105 7305   5.375   9.189   0.157 -0.2244 -0.2470 -0.6353
   18CHTO  H192 7306   5.291   9.206   0.224  1.7011  0.9180  1.5307
   18CHTO   O65 7307   5.357   9.062   0.096  0.2194  0.0499 -0.4157
   18CHTO  C100 7308   5.371   8.951   0.192 -0.0476 -0.3350  0.1668
   18CHTO  H187 7309   5.321   8.980   0.286  0.0024 -0.9534  0.3844
   18CHTO  C107 7310   5.314   8.816   0.133 -0.1438 -0.8463  0.3062
   18CHTO   O70 7311   5.395   8.762   0.034  0.0865  0.5086  0.4471
   18CHTO  H170 7312   5.461   8.826   0.015  0.8545 -0.0702  1.1479
   18CHTO   O57 7313   5.375   9.293   0.037 -0.1757  0.0640  0.0327
   18CHTO   C85 7314   5.262   9.334  -0.052 -0.6984  0.0711 -0.4038
   18CHTO  H157 7315   5.298   9.389  -0.141 -0.7143 -0.6538 -0.8533
   18CHTO   C83 7316   5.182   9.448   0.017 -0.4835 -0.3660 -0.5642
   18CHTO  H155 7317   5.234   9.543   0.026  0.3915 -0.8392 -0.6457
   18CHTO   O56 7318   5.167   9.408   0.156 -0.2156 -0.2543 -0.5111
   18CHTO  H135 7319   5.250   9.417   0.200 -0.0756  1.0390 -1.0275
   18CHTO   C81 7320   5.051   9.481  -0.057 -0.1820  0.3597 -0.4401
   18CHTO  H153 7321   5.078   9.521  -0.155  0.7745 -1.6059 -1.0099
   18CHTO   N14 7322   4.981   9.594   0.007  0.3124 -0.1036 -0.3742
   18CHTO  H141 7323   4.894   9.636  -0.039 -0.6370 -1.5324  0.0982
   18CHTO  H142 7324   5.053   9.673   0.017 -0.2622  0.6654 -2.1016
   18CHTO   C79 7325   4.961   9.356  -0.076 -0.1475 -0.0990 -0.1000
   18CHTO  H151 7326   4.877   9.385  -0.139 -0.6182 -2.1833 -0.5045
   18CHTO   O52 7327   5.043   9.262  -0.154 -1.1673 -0.2485  0.3411
   18CHTO   C86 7328   5.160   9.213  -0.087 -0.2843 -0.4906  0.6141
   18CHTO  H158 7329   5.127   9.160   0.004  0.6266  0.2330  1.3785
   18CHTO   C90 7330   5.226   9.101  -0.175  0.7064 -0.3651  0.0072
   18CHTO   O60 7331   5.141   8.999  -0.203 -0.1118  0.2664  0.2290
   18CHTO  H138 7332   5.092   9.022  -0.279  2.2316  0.0044 -1.4417
   18CHTO   O50 7333   4.911   9.292   0.047 -0.0079 -0.1294  0.1751
   18CHTO   C73 7334   4.808   9.202   0.101 -0.5832 -0.3474  0.0310
   18CHTO  H145 7335   4.792   9.115   0.036  0.1485 -2.2813  2.3260
   18CHTO   C74 7336   4.674   9.283   0.120  0.5796 -0.1542  0.2730
   18CHTO  H146 7337   4.653   9.324   0.020 -2.6016 -0.0371  0.9506
   18CHTO   O54 7338   4.567   9.196   0.152 -0.3774  0.1654  0.0463
   18CHTO  H133 7339   4.516   9.167   0.078  1.4157 -3.2138  0.0682
   18CHTO   C75 7340   4.686   9.399   0.228 -0.1472  0.3887 -0.9469
   18CHTO  H147 7341   4.751   9.474   0.182  0.7963 -0.6801 -1.3992
   18CHTO   N13 7342   4.568   9.474   0.265  0.2126 -0.1106  0.3263
   18CHTO  H139 7343   4.596   9.537   0.348  2.7487 -0.5590 -0.1424
   18CHTO  H140 7344   4.541   9.527   0.174  0.8412  0.2310  0.3394
   18CHTO   C76 7345   4.753   9.340   0.354 -0.1019  0.0819 -0.6552
   18CHTO  H148 7346   4.685   9.276   0.409 -0.5911 -0.4541 -1.8659
   18CHTO   O49 7347   4.876   9.276   0.325  0.3548 -0.1075  0.0807
   18CHTO   C77 7348   4.857   9.155   0.245 -0.2658 -0.0251  0.2046
   18CHTO  H149 7349   4.777   9.092   0.286 -1.6213  1.2796 -0.3743
   18CHTO   C88 7350   4.997   9.091   0.238 -0.3246 -0.5356 -0.9672
   18CHTO   O58 7351   4.982   8.954   0.212  0.2460 -0.2944  0.0426
   18CHTO  H136 7352   5.055   8.899   0.195 -0.3767 -0.6739 -1.4923
   18CHTO   O51 7353   4.826   9.463   0.458  0.0849 -0.0164  0.1604
   18CHTO   C78 7354   4.869   9.396   0.601  0.2403  0.2723 -0.1830
   18CHTO  H150 7355   4.866   9.285   0.598  0.4426  0.2205  1.0861
   18CHTO   C80 7356   4.773   9.438   0.704  0.3065 -1.3173  0.1030
   18CHTO  H152 7357   4.774   9.549   0.704  0.0054 -1.3011  2.1505
   18CHTO   O55 7358   4.643   9.402   0.655 -0.1066  0.1033 -0.2279
   18CHTO  H134 7359   4.582   9.432   0.719  1.1643 -0.1232  1.1194
   18CHTO   C84 7360   4.795   9.388   0.853  0.5755  0.4242  0.1439
   18CHTO  H156 7361   4.773   9.282   0.844 -1.4128  0.8872 -0.6436
   18CHTO   N15 7362   4.709   9.451   0.955 -0.2016  0.7135  0.6506
   18CHTO  H143 7363   4.733   9.415   1.053  0.6136 -1.5702 -0.3570
   18CHTO  H144 7364   4.606   9.434   0.932  0.5752 -2.0851 -0.9724
   18CHTO   C87 7365   4.941   9.403   0.889 -0.2095 -0.6717  0.1243
   18CHTO  H159 7366   4.955   9.509   0.912 -0.9763 -0.6107  0.3040
   18CHTO   O53 7367   5.036   9.355   0.769  0.5198 -0.3021  0.0744
   18CHTO   C82 7368   5.013   9.431   0.653 -0.1014  0.2238  0.1675
   18CHTO  H154 7369   5.034   9.536   0.670  1.1267 -0.0431  0.3507
   18CHTO   C89 7370   5.119   9.376   0.556 -0.3687  0.0735  0.0286
   18CHTO   O59 7371   5.258   9.382   0.603  0.1542  0.8295 -0.0584
   18CHTO  H137 7372   5.301   9.440   0.544  0.0664  0.8360 -0.1149
   18CHTO   O45 7373   4.972   9.325   1.016  0.2793  0.2336  0.5257
   18CHTO   C67 7374   5.112   9.292   1.036  0.1843  0.6809 -0.0968
   18CHTO  H124 7375   5.146   9.215   0.967 -1.0852 -0.3066  0.3527
   18CHTO   C65 7376   5.206   9.426   1.034  0.4532 -0.0687 -0.2916
   18CHTO  H122 7377   5.135   9.508   1.046 -0.0340 -0.4346 -0.7091
   18CHTO   O44 7378   5.262   9.446   0.902 -0.5886 -0.8987 -0.1627
   18CHTO  H102 7379   5.348   9.477   0.921 -1.5670  0.2765  2.6650
   18CHTO   C63 7380   5.303   9.439   1.154  0.1980 -0.2092 -0.3270
   18CHTO  H120 7381   5.242   9.452   1.243  2.3578  1.3125  0.9634
   18CHTO   N11 7382   5.388   9.563   1.151  0.1204 -0.4294 -0.4533
   18CHTO  H108 7383   5.380   9.614   1.057 -3.3089 -1.1934 -0.6422
   18CHTO  H109 7384   5.355   9.626   1.231  0.7869  1.1018 -1.3524
   18CHTO   C61 7385   5.366   9.296   1.174 -0.1164 -0.1705  0.1097
   18CHTO  H118 7386   5.434   9.298   1.261 -2.3672  1.0161  1.8902
   18CHTO   O40 7387   5.264   9.193   1.205  0.2235 -0.1538 -0.1763
   18CHTO   C68 7388   5.126   9.217   1.177 -0.1924 -0.2255  0.1423
   18CHTO  H125 7389   5.076   9.271   1.260  0.0719 -0.6754  0.5941
   18CHTO   C72 7390   5.057   9.076   1.164  1.0904  0.2229  0.0285
   18CHTO   O48 7391   5.109   8.968   1.236 -0.7703 -0.0098 -0.1439
   18CHTO  H105 7392   5.064   8.969   1.318  0.3969 -1.5205  0.5576
   18CHTO   O38 7393   5.435   9.256   1.054  0.2491 -0.1582 -1.0029
   18CHTO   C55 7394   5.559   9.183   1.074  0.1414  0.4122 -0.1263
   18CHTO  H112 7395   5.570   9.142   1.176  1.1220  0.3924 -0.2346
   18CHTO   C56 7396   5.685   9.273   1.032 -0.1471 -0.0274 -0.6577
   18CHTO  H113 7397   5.674   9.279   0.923 -0.2173 -1.0771 -0.7108
   18CHTO   O42 7398   5.674   9.401   1.091  0.1594 -0.2634 -0.1757
   18CHTO  H100 7399   5.742   9.456   1.056 -0.1819  0.2988  0.0347
   18CHTO   C57 7400   5.813   9.185   1.076  0.1626 -0.4207 -0.5141
   18CHTO  H114 7401   5.802   9.167   1.183 -2.2875  0.9951 -0.4993
   18CHTO   N10 7402   5.939   9.256   1.056 -0.1892 -0.1231 -0.5659
   18CHTO  H106 7403   6.024   9.191   1.038  0.7011 -0.0095  2.8326
   18CHTO  H107 7404   5.955   9.318   1.143  1.6068 -1.0182 -0.2326
   18CHTO   C58 7405   5.809   9.049   1.002 -0.3211 -0.4627  0.0790
   18CHTO  H115 7406   5.831   9.066   0.895  0.3783  0.3186  0.3354
   18CHTO   O37 7407   5.680   8.988   0.998  0.1948  0.1966  0.1699
   18CHTO   C59 7408   5.556   9.060   0.984  0.7032 -0.4155  0.0471
   18CHTO  H116 7409   5.542   9.096   0.883 -0.1378 -0.6966  0.0564
   18CHTO   C70 7410   5.441   8.967   1.020  0.5202 -0.0441 -0.6447
   18CHTO   O46 7411   5.403   8.860   0.932 -0.2049  0.0425  0.6625
   18CHTO  H103 7412   5.336   8.810   0.975 -1.8706  1.0289 -0.7158
   18CHTO   O39 7413   5.902   8.951   1.072 -0.2723  0.5900  0.0995
   18CHTO   C60 7414   5.841   8.888   1.190  0.0640  0.5269  0.1071
   18CHTO  H117 7415   5.761   8.952   1.225  1.4186  0.7156  2.9426
   18CHTO   C62 7416   5.778   8.744   1.160  0.2665 -0.7914 -0.2801
   18CHTO  H119 7417   5.721   8.757   1.065  0.7998 -3.5377 -1.0356
   18CHTO   O43 7418   5.884   8.652   1.139  0.7248  0.1950 -0.4442
   18CHTO  H101 7419   5.868   8.607   1.058  0.2200  1.2328 -0.9176
   18CHTO   C66 7420   5.666   8.710   1.277 -0.3434 -0.1590 -0.0195
   18CHTO  H123 7421   5.596   8.792   1.287 -0.6970 -0.5477  0.6838
   18CHTO   N12 7422   5.582   8.590   1.245  0.3836  0.2786 -0.1902
   18CHTO  H110 7423   5.506   8.579   1.321 -0.3354  2.8923 -0.4790
   18CHTO  H111 7424   5.644   8.504   1.221  0.4075  0.1923  0.1769
   18CHTO   C69 7425   5.720   8.697   1.421  1.0446 -0.6216  0.0721
   18CHTO  H126 7426   5.768   8.597   1.428  0.9775 -0.7098 -0.7298
   18CHTO   O41 7427   5.839   8.822   1.448  0.0093 -0.1168  0.5802
   18CHTO   C64 7428   5.934   8.868   1.310  0.2960  0.1088 -0.0865
   18CHTO  H121 7429   5.999   8.782   1.287 -1.3133 -0.0548 -4.5020
   18CHTO   C71 7430   6.018   8.995   1.348  1.5242 -0.8769 -0.3546
   18CHTO   O47 7431   6.080   8.980   1.473  0.1087  0.2895 -0.0375
   18CHTO  H104 7432   6.110   8.891   1.463 -0.8705 -0.0408 -0.1260
   18CHTO   O34 7433   5.586   8.715   1.522  0.3361  0.0825 -0.3052
   18CHTO   C49 7434   5.525   8.784   1.661 -0.2284  0.5933  0.8100
   18CHTO   H91 7435   5.572   8.729   1.743  0.3659  1.2165  0.8969
   18CHTO   C47 7436   5.374   8.763   1.669 -0.4561  0.0366  0.0580
   18CHTO   H89 7437   5.342   8.817   1.760 -0.1466  0.9248 -0.3536
   18CHTO   O33 7438   5.348   8.623   1.678 -0.3950 -0.2121 -0.2771
   18CHTO   H70 7439   5.300   8.595   1.603  0.0170  0.2339 -0.7031
   18CHTO   C45 7440   5.304   8.836   1.549  0.0486  0.0586 -0.2798
   18CHTO   H87 7441   5.343   8.801   1.452  2.4099  2.2639 -0.1836
   18CHTO    N8 7442   5.154   8.820   1.555  0.1089 -0.3696  0.0949
   18CHTO   H75 7443   5.123   8.716   1.563  0.5088 -0.4994 -0.0617
   18CHTO   H76 7444   5.114   8.857   1.462 -2.1257 -0.3314  1.0162
   18CHTO   C43 7445   5.344   8.995   1.550  0.2588 -0.0328 -0.9178
   18CHTO   H85 7446   5.306   9.033   1.454 -1.1518  0.8561 -0.0259
   18CHTO   O29 7447   5.486   9.015   1.561  0.0118 -0.7678  0.8246
   18CHTO   C50 7448   5.561   8.939   1.655 -0.4339  1.3042  0.3043
   18CHTO   H92 7449   5.665   8.944   1.622 -0.3309  1.5181  0.6538
   18CHTO   C54 7450   5.562   8.999   1.800  0.1097  0.6892 -0.5257
   18CHTO   O36 7451   5.640   9.115   1.806  1.1888  0.1440  0.1073
   18CHTO   H72 7452   5.609   9.169   1.877 -1.1120 -0.0443 -0.7258
   18CHTO   O27 7453   5.291   9.080   1.652  0.7139 -0.1106 -0.2953
   18CHTO   C37 7454   5.241   9.214   1.667 -0.1829 -0.5941  0.5109
   18CHTO   H79 7455   5.250   9.246   1.772 -0.9552  1.1813  0.0553
   18CHTO   C38 7456   5.332   9.316   1.583 -0.6571  0.4742 -0.3691
   18CHTO   H80 7457   5.340   9.283   1.478 -0.8794  0.4311 -0.3729
   18CHTO   O31 7458   5.459   9.303   1.646 -0.2109 -0.5144 -0.5787
   18CHTO   H68 7459   5.448   9.336   1.733 -3.4206  2.1307 -1.8530
   18CHTO   C39 7460   5.280   9.466   1.587 -0.0714  0.0048  0.4709
   18CHTO   H81 7461   5.276   9.497   1.691 -2.1012 -1.4668  0.8588
   18CHTO    N7 7462   5.354   9.560   1.505  0.3221 -0.0790 -0.0361
   18CHTO   H73 7463   5.320   9.585   1.406  0.6494 -1.2649 -0.4568
   18CHTO   H74 7464   5.406   9.638   1.559  0.4030  0.5944 -1.0785
   18CHTO   C40 7465   5.127   9.464   1.540 -0.7529 -0.0786 -0.1767
   18CHTO   H82 7466   5.121   9.429   1.437  1.0152 -2.2181  0.4254
   18CHTO   O26 7467   5.048   9.383   1.630  0.0502 -0.7731  0.1288
   18CHTO   C41 7468   5.094   9.239   1.621  1.3963  0.6624  0.4779
   18CHTO   H83 7469   5.090   9.202   1.518  2.3743  0.8589  0.3620
   18CHTO   C52 7470   4.987   9.155   1.703 -0.2037  0.3681  0.1513
   18CHTO   O35 7471   4.854   9.144   1.659  0.0009  0.4073 -0.5459
   18CHTO   H71 7472   4.807   9.099   1.726  0.2496 -1.2225 -1.4319
   18CHTO   O28 7473   5.073   9.597   1.548  0.4065  0.4608 -0.3701
   18CHTO   C42 7474   4.928   9.644   1.551 -0.5035 -0.1507 -0.0688
   18CHTO   H84 7475   4.931   9.753   1.553  0.1201 -0.1776  1.4588
   18CHTO   C44 7476   4.841   9.602   1.682 -0.2569  0.1777  0.8447
   18CHTO   H86 7477   4.842   9.493   1.684  2.1058  0.1763  2.2617
   18CHTO   O32 7478   4.915   9.641   1.798 -0.0239 -0.2681  0.3744
   18CHTO   H69 7479   4.896   9.733   1.806 -0.6866 -0.1723 -1.7978
   18CHTO   C48 7480   4.696   9.662   1.676  0.0089 -0.6928 -0.4210
   18CHTO   H90 7481   4.701   9.771   1.681 -0.2926 -0.6416 -1.2239
   18CHTO    N9 7482   4.626   9.614   1.799  0.3331 -0.2585 -0.3576
   18CHTO   H77 7483   4.535   9.670   1.814  0.5047  0.4589 -1.8890
   18CHTO   H78 7484   4.603   9.508   1.802 -2.0686  0.2796  2.2391
   18CHTO   C51 7485   4.629   9.618   1.540 -1.0052 -0.9940  0.1784
   18CHTO   H93 7486   4.619   9.509   1.541 -0.8423 -1.0043  1.1260
   18CHTO   O30 7487   4.710   9.661   1.436 -0.1946 -0.3388  0.0967
   18CHTO   C46 7488   4.849   9.604   1.427 -0.4209  0.6416 -0.1984
   18CHTO   H88 7489   4.848   9.495   1.429  2.7100  0.5912  0.0525
   18CHTO   C53 7490   4.902   9.657   1.293 -0.7808 -0.1411 -0.0260
   18CHTO   O72 7491   4.995   9.574   1.230 -0.1473  0.1552 -0.2006
   18CHTO  H199 7492   5.088   9.588   1.237  0.1660 -0.9428 -1.8725
   18CHTO   O22 7493   4.506   9.683   1.531 -0.2152 -0.1822  0.3634
   18CHTO   C31 7494   4.397   9.611   1.465  0.8481  0.0468  0.1085
   18CHTO   H59 7495   4.441   9.528   1.406  1.1532  0.4579 -0.2408
   18CHTO   C29 7496   4.290   9.545   1.555 -0.2967  0.1772  0.3527
   18CHTO   H57 7497   4.242   9.615   1.625  0.9910  0.9212  0.5006
   18CHTO   O21 7498   4.367   9.456   1.641  0.2401 -0.0838 -0.3243
   18CHTO   H37 7499   4.305   9.411   1.694 -0.9350  3.6336  1.6563
   18CHTO   C27 7500   4.187   9.459   1.480  0.1047  0.5075  0.4001
   18CHTO   H55 7501   4.243   9.377   1.431  1.4187  0.6159  1.6607
   18CHTO    N5 7502   4.082   9.391   1.559 -0.0312 -0.4040 -0.4287
   18CHTO   H43 7503   4.022   9.465   1.612 -1.0545 -2.8286  1.9195
   18CHTO   H44 7504   4.120   9.315   1.626  0.2211 -1.0795 -1.3336
   18CHTO   C25 7505   4.125   9.549   1.370 -0.2415 -0.4519  0.2935
   18CHTO   H53 7506   4.075   9.628   1.428 -1.2160 -1.6492  1.1020
   18CHTO   O17 7507   4.220   9.616   1.286  0.2015  0.1156 -0.0808
   18CHTO   C32 7508   4.318   9.694   1.351  0.7698 -0.2401 -0.1373
   18CHTO   H60 7509   4.269   9.778   1.401 -0.2326 -0.5492 -0.5895
   18CHTO   C36 7510   4.419   9.767   1.254  0.2797 -0.5232  0.5996
   18CHTO   O25 7511   4.467   9.674   1.156 -0.1575 -0.3900 -0.3543
   18CHTO   H40 7512   4.414   9.601   1.133 -0.1540 -1.0347  1.5904
   18CHTO   O15 7513   4.012   9.479   1.286  0.0470 -0.1398 -0.0597
   18CHTO   C19 7514   4.015   9.414   1.156  0.5287 -0.1173  0.5555
   18CHTO   H47 7515   3.907   9.404   1.137  0.6894 -3.2752  1.0058
   18CHTO   C20 7516   4.084   9.506   1.046 -0.0065  0.6370  0.0895
   18CHTO   H48 7517   4.189   9.529   1.070 -0.2478 -1.4345  3.4504
   18CHTO   O19 7518   4.013   9.632   1.041  0.0244  0.2965  0.2091
   18CHTO   H35 7519   4.058   9.683   0.976 -0.1292  2.1057  1.5155
   18CHTO   C21 7520   4.080   9.439   0.894  0.0772 -0.4010  0.5519
   18CHTO   H49 7521   3.978   9.425   0.856  0.0925  0.5818  0.1485
   18CHTO    N4 7522   4.156   9.516   0.789  0.3904 -0.8769 -0.7385
   18CHTO   H41 7523   4.245   9.458   0.768 -0.1063 -1.9538  0.1022
   18CHTO   H42 7524   4.186   9.615   0.819  1.9679 -1.0301 -1.7368
   18CHTO   C22 7525   4.128   9.294   0.915 -0.5486 -0.5792  0.0152
   18CHTO   H50 7526   4.232   9.294   0.947  0.0578 -0.9110 -1.8391
   18CHTO   O14 7527   4.059   9.222   1.020 -0.3638  0.3275 -0.1115
   18CHTO   C23 7528   4.070   9.271   1.154 -0.3873  0.1231 -0.3333
   18CHTO   H51 7529   4.174   9.267   1.189 -1.0505 -0.4852  1.6344
   18CHTO   C34 7530   4.003   9.166   1.241  0.2069  0.4957  0.0494
   18CHTO   O23 7531   3.864   9.176   1.235  0.4114 -0.2459 -0.3627
   18CHTO   H38 7532   3.826   9.099   1.272  1.3738 -0.0696  1.0514
   18CHTO   O16 7533   4.108   9.211   0.793  0.4412 -0.0029  0.0979
   18CHTO   C24 7534   4.239   9.153   0.711 -0.1060 -0.4389 -0.7114
   18CHTO   H52 7535   4.330   9.203   0.745 -0.6807  0.7938 -0.9307
   18CHTO   C26 7536   4.225   9.176   0.560 -0.2086 -0.0604 -0.0738
   18CHTO   H54 7537   4.124   9.140   0.531 -0.9876  1.9245  0.1036
   18CHTO   O20 7538   4.226   9.318   0.532  0.3578 -0.0814  0.2529
   18CHTO   H36 7539   4.310   9.360   0.539  1.1452 -1.8404  1.6452
   18CHTO   C30 7540   4.340   9.103   0.479  0.3368 -0.5979  0.7309
   18CHTO   H58 7541   4.432   9.163   0.480  0.0373 -0.1382  0.9726
   18CHTO    N6 7542   4.295   9.112   0.334  0.4638 -0.3405 -0.1880
   18CHTO   H45 7543   4.199   9.066   0.316  0.1909  0.3734 -0.5964
   18CHTO   H46 7544   4.371   9.067   0.271 -0.5975 -2.6217  0.1252
   18CHTO   C33 7545   4.372   8.961   0.542 -0.1677 -0.0579 -0.1248
   18CHTO   H61 7546   4.297   8.891   0.504  0.2200  0.4033 -1.7742
   18CHTO   O18 7547   4.375   8.954   0.687 -0.0236 -0.0331  0.0750
   18CHTO   C28 7548   4.250   9.001   0.743 -0.2266  0.6286  0.1200
   18CHTO   H56 7549   4.166   8.948   0.699  0.8591 -0.7000 -0.3773
   18CHTO   C35 7550   4.274   8.963   0.887  0.1004 -0.4478  0.4140
   18CHTO   O24 7551   4.175   9.000   0.978 -0.5130 -0.4611 -0.2956
   18CHTO   H39 7552   4.193   8.977   1.068  2.3780  1.7232 -0.2359
   18CHTO    O9 7553   4.498   8.909   0.485  0.1641 -0.1226  0.0767
   18CHTO   C13 7554   4.591   8.831   0.572 -0.3362  0.2312  0.3668
   18CHTO   H26 7555   4.526   8.770   0.639 -1.1982  0.8704  0.1192
   18CHTO   C11 7556   4.687   8.928   0.659 -0.0815  0.1021  0.8965
   18CHTO   H24 7557   4.616   8.976   0.728  0.2849  3.5889 -1.0233
   18CHTO    O8 7558   4.744   9.022   0.572 -0.0270 -0.6499  0.0073
   18CHTO    H3 7559   4.814   9.077   0.602  2.2399 -2.3495 -1.9755
   18CHTO    C9 7560   4.789   8.830   0.726  0.3460  0.1675  0.6169
   18CHTO   H22 7561   4.726   8.759   0.781  0.8775 -0.2993  0.6257
   18CHTO    N2 7562   4.867   8.898   0.833  0.0431  0.6938 -0.3557
   18CHTO   H10 7563   4.836   8.856   0.927 -1.8461  0.2228 -1.1712
   18CHTO   H11 7564   4.852   9.005   0.832  1.1797  0.8756  0.7474
   18CHTO    C7 7565   4.864   8.743   0.630 -0.1575 -0.1200 -0.2711
   18CHTO   H20 7566   4.927   8.681   0.697  0.3058 -2.0373 -2.4265
   18CHTO    O4 7567   4.771   8.664   0.550 -0.9706 -0.5297 -0.2043
   18CHTO   C14 7568   4.667   8.732   0.472  0.1199 -0.2533 -1.0790
   18CHTO   H27 7569   4.594   8.654   0.443 -0.5662 -0.5855  1.3813
   18CHTO   C18 7570   4.727   8.804   0.347  0.9361 -1.0002  0.3117
   18CHTO   O13 7571   4.787   8.704   0.267 -0.6301  0.3244  0.1837
   18CHTO    H7 7572   4.729   8.673   0.201  1.4954 -2.2399 -0.5500
   18CHTO    O2 7573   4.965   8.834   0.517 -1.0732  0.0646 -0.4865
   18CHTO    C1 7574   5.097   8.789   0.491  0.6062  0.3254 -0.9866
   18CHTO   H14 7575   5.141   8.841   0.404  0.6790  0.5473 -0.8177
   18CHTO    C2 7576   5.114   8.637   0.472  0.3825 -0.3285 -0.6883
   18CHTO   H15 7577   5.065   8.584   0.555  1.1486 -0.6723 -0.4425
   18CHTO    O6 7578   5.040   8.604   0.349 -0.0701 -0.5825 -0.0821
   18CHTO    H1 7579   5.090   8.626   0.272  0.6630  0.5601  0.7040
   18CHTO    C3 7580   5.264   8.585   0.471  0.7373  0.2358  0.1595
   18CHTO   H16 7581   5.300   8.628   0.377  0.3824 -0.3883 -0.2686
   18CHTO    N1 7582   5.275   8.433   0.456  0.2588 -0.4576 -0.0105
   18CHTO    H8 7583   5.232   8.405   0.361 -1.5306 -0.3021  0.7331
   18CHTO    H9 7584   5.220   8.381   0.534  0.4175 -0.2748  0.2245
   18CHTO    C4 7585   5.349   8.649   0.585  0.3039  0.0839  0.6276
   18CHTO   H17 7586   5.314   8.609   0.681 -0.2780 -0.4278  0.2099
   18CHTO    O1 7587   5.326   8.794   0.579 -0.2907  0.8935  0.4968
   18CHTO    C5 7588   5.190   8.832   0.609  0.0470 -0.5093 -0.2338
   18CHTO   H18 7589   5.155   8.773   0.695 -1.2855 -1.2771 -1.2830
   18CHTO   C16 7590   5.182   8.992   0.638 -0.9225  1.0827  0.1021
   18CHTO   O11 7591   5.273   9.040   0.730  0.5208 -0.4327  0.0667
   18CHTO    H5 7592   5.365   9.041   0.712  0.3245 -0.7836 -0.9437
   18CHTO    O3 7593   5.491   8.627   0.561 -0.0565 -0.3369  0.2282
   18CHTO    C6 7594   5.576   8.603   0.679 -0.3935 -0.5404  0.2320
   18CHTO   H19 7595   5.518   8.631   0.767  2.2717 -0.9582  2.1872
   18CHTO    C8 7596   5.631   8.462   0.699 -0.0912  0.2582 -0.1645
   18CHTO   H21 7597   5.691   8.437   0.611 -1.7528  0.5327 -1.4139
   18CHTO    O7 7598   5.510   8.382   0.712 -0.2362 -0.6647  0.3291
   18CHTO    H2 7599   5.520   8.293   0.684  0.1499 -0.2048 -1.0136
   18CHTO   C12 7600   5.734   8.458   0.822 -0.5428  0.4304 -0.1620
   18CHTO   H25 7601   5.677   8.482   0.915  0.3617 -1.0615  0.7904
   18CHTO    N3 7602   5.790   8.320   0.844  0.2678  0.7326 -0.3287
   18CHTO   H12 7603   5.733   8.240   0.799  0.2880 -0.4891  1.7794
   18CHTO   H13 7604   5.817   8.313   0.948 -0.5345  2.0659 -0.0155
   18CHTO   C15 7605   5.845   8.566   0.799 -0.4894 -0.1204  1.2099
   18CHTO   H28 7606   5.894   8.542   0.704  2.5304  3.0474  1.8928
   18CHTO   O10 7607   5.944   8.598   0.904 -0.1953 -0.1317  0.1366
   18CHTO    H4 7608   6.019   8.551   0.872  1.3054  2.8502 -0.9420
   18CHTO    O5 7609   5.778   8.690   0.792  0.4074  0.9852 -0.3682
   18CHTO   C10 7610   5.694   8.703   0.681  0.1915  0.2850 -0.6014
   18CHTO   H23 7611   5.760   8.693   0.594  1.6342 -1.6144  0.6711
   18CHTO   C17 7612   5.638   8.849   0.682 -0.2878  0.4106  0.1522
   18CHTO   O12 7613   5.738   8.952   0.651 -0.2319 -0.0527  0.2256
   18CHTO    H6 7614   5.699   8.997   0.578  1.5693 -0.5771 -1.1103
   19CHTO  H203 7615   5.165   0.803  -0.129 -1.1276 -0.7170 -0.1485
   19CHTO   O82 7616   5.234   0.744  -0.151 -0.1152  0.4542 -0.1597
   19CHTO  C123 7617   5.179   0.625  -0.222  0.3423 -0.4502  0.1687
   19CHTO  H227 7618   5.104   0.659  -0.295 -1.8558 -2.9706  1.1744
   19CHTO   O77 7619   5.288   0.562  -0.286 -0.4308  0.1124  0.3185
   19CHTO  C118 7620   5.254   0.450  -0.366  0.6355 -0.1324  0.2551
   19CHTO  H222 7621   5.179   0.475  -0.442  0.4088 -1.6061 -0.0186
   19CHTO  C125 7622   5.388   0.398  -0.441  0.6089 -0.4053 -0.0505
   19CHTO   O84 7623   5.434   0.496  -0.530  0.3011  0.7870 -0.4903
   19CHTO  H205 7624   5.431   0.577  -0.483  0.7139  0.2560  0.4738
   19CHTO  C114 7625   5.208   0.335  -0.281  0.2320 -0.2120  0.0270
   19CHTO  H218 7626   5.290   0.300  -0.218  1.1342  0.5627 -0.6991
   19CHTO  C116 7627   5.093   0.378  -0.191 -0.8249 -0.1484  0.3615
   19CHTO  H220 7628   5.000   0.382  -0.252 -1.3971 -1.0171  1.1522
   19CHTO   O79 7629   5.069   0.273  -0.096  0.7552  0.2413 -0.0985
   19CHTO  H201 7630   5.034   0.295  -0.012  1.3862  0.5618  0.0843
   19CHTO  C120 7631   5.120   0.517  -0.121 -0.1476 -0.3524  0.0360
   19CHTO  H224 7632   5.201   0.498  -0.046 -0.6088 -0.9901  0.3733
   19CHTO   N21 7633   5.008   0.575  -0.046  1.0303  0.1045 -0.2457
   19CHTO  H211 7634   5.021   0.681  -0.036  1.8823  0.0019 -0.2642
   19CHTO  H212 7635   4.908   0.556  -0.082  1.1315 -0.3956 -0.2721
   19CHTO   O75 7636   5.169   0.236  -0.373 -0.1056  0.2458 -0.4150
   19CHTO  C112 7637   5.181   0.073  -0.320 -0.0812  0.6738  0.0133
   19CHTO  H216 7638   5.174   0.088  -0.212 -0.5807  0.9908 -0.0639
   19CHTO   O73 7639   5.311   0.018  -0.366  0.2520  0.0510 -0.2001
   19CHTO  C113 7640   5.322  -0.122  -0.350 -0.0767  0.9035  0.5521
   19CHTO  H217 7641   5.309  -0.145  -0.242 -2.0000 -0.6833  0.0360
   19CHTO  C124 7642   5.468  -0.152  -0.389 -0.2159  0.5479 -0.4856
   19CHTO   O83 7643   5.511  -0.283  -0.370 -0.4820 -0.4438 -0.3689
   19CHTO  H204 7644   5.533  -0.289  -0.279 -0.1071  0.7263 -0.3723
   19CHTO  C109 7645   5.211  -0.200  -0.433  0.4258 -0.0941 -0.0791
   19CHTO  H213 7646   5.227  -0.169  -0.537 -1.5105 -0.4204 -0.4986
   19CHTO  C110 7647   5.065  -0.156  -0.378  0.2873 -0.1944 -0.2417
   19CHTO  H214 7648   5.065  -0.188  -0.274 -0.8156 -0.8930 -0.4448
   19CHTO   O78 7649   4.953  -0.225  -0.452 -0.7969 -0.0527  0.2921
   19CHTO  H200 7650   4.911  -0.283  -0.391 -1.4343  1.7320  1.5931
   19CHTO  C111 7651   5.056   0.002  -0.376  0.0298 -0.3228  0.8716
   19CHTO  H215 7652   5.054   0.036  -0.481 -3.0296  0.5327  1.1610
   19CHTO   N19 7653   4.933   0.058  -0.321  0.4147 -0.2156 -0.0123
   19CHTO  H207 7654   4.842   0.020  -0.365  0.3841 -1.4630  1.1049
   19CHTO  H208 7655   4.940   0.165  -0.339  1.8760 -0.1126  1.1279
   19CHTO   O74 7656   5.236  -0.338  -0.428  0.0916  0.3261 -0.5440
   19CHTO  C115 7657   5.175  -0.418  -0.555  0.7773  0.3079 -0.3091
   19CHTO  H219 7658   5.111  -0.353  -0.614 -0.9807 -1.8010 -0.8078
   19CHTO   O76 7659   5.290  -0.461  -0.657  0.0993  0.2011 -0.0061
   19CHTO  C122 7660   5.396  -0.543  -0.607 -1.0640  0.6367  0.2417
   19CHTO  H226 7661   5.452  -0.490  -0.530  0.3249 -1.1776  0.5118
   19CHTO  C126 7662   5.491  -0.570  -0.725  0.1889 -0.9032 -0.0006
   19CHTO   O85 7663   5.616  -0.615  -0.686  1.0137 -0.1591  0.1068
   19CHTO  H206 7664   5.597  -0.668  -0.611 -1.4936  0.3354 -0.1233
   19CHTO  C121 7665   5.338  -0.681  -0.551  0.0058 -0.3831  0.1334
   19CHTO  H225 7666   5.386  -0.768  -0.602 -0.6092 -1.0355  0.6707
   19CHTO   O81 7667   5.378  -0.679  -0.412  0.1537 -0.1928  0.1266
   19CHTO  H202 7668   5.347  -0.759  -0.374 -0.4207  1.8457  4.2109
   19CHTO  C119 7669   5.180  -0.688  -0.560 -0.5969  0.8433 -0.3368
   19CHTO  H223 7670   5.149  -0.692  -0.664  2.2127  1.7218 -1.2527
   19CHTO  C117 7671   5.121  -0.557  -0.503 -0.1293 -0.0832 -0.3650
   19CHTO  H221 7672   5.145  -0.552  -0.397 -0.5994  2.9523 -0.3638
   19CHTO   N20 7673   4.970  -0.549  -0.508  0.0949 -0.0001 -0.6981
   19CHTO  H209 7674   4.930  -0.463  -0.457  1.3649  0.8367 -1.1024
   19CHTO  H210 7675   4.945  -0.551  -0.613 -3.4775 -0.9347  0.0679
   19CHTO   O80 7676   5.127  -0.827  -0.509  0.0942 -0.3941 -0.0553
   19CHTO  C103 7677   5.121  -0.942  -0.610  0.3575  0.3708  0.0026
   19CHTO  H190 7678   5.144  -0.910  -0.712  2.4032  1.2751  0.7166
   19CHTO  C101 7679   5.224  -1.061  -0.572  0.4602  0.2312  0.1434
   19CHTO  H188 7680   5.196  -1.100  -0.474 -0.0878 -1.3480 -0.6197
   19CHTO   O68 7681   5.367  -1.013  -0.582  0.5554 -0.3399 -0.1118
   19CHTO  H168 7682   5.368  -0.932  -0.534  0.8558 -1.2002  1.3593
   19CHTO   C99 7683   5.191  -1.187  -0.669 -0.3276 -0.3687  0.0507
   19CHTO  H186 7684   5.213  -1.159  -0.773  3.5250 -0.6851  0.7280
   19CHTO   N17 7685   5.278  -1.304  -0.641  0.2117 -0.1592  0.4997
   19CHTO  H174 7686   5.260  -1.338  -0.540 -1.0542 -0.0435  0.3219
   19CHTO  H175 7687   5.257  -1.375  -0.719 -0.8077 -0.9898  1.5211
   19CHTO   C97 7688   5.040  -1.219  -0.663  0.3990  0.2171  0.2282
   19CHTO  H184 7689   5.008  -1.261  -0.566 -0.6634  0.5771  0.0325
   19CHTO   O64 7690   4.960  -1.104  -0.700 -0.2473 -0.1126  0.0752
   19CHTO  C104 7691   4.970  -0.999  -0.603 -0.1308  0.1354  0.6769
   19CHTO  H191 7692   4.955  -1.032  -0.500  1.8433  1.5387  1.4471
   19CHTO  C108 7693   4.867  -0.890  -0.634 -0.1829 -0.2569 -0.2628
   19CHTO   O71 7694   4.729  -0.929  -0.641  0.2131 -0.0793  0.3957
   19CHTO  H171 7695   4.694  -0.952  -0.726 -0.8910  0.4538  0.6968
   19CHTO   O62 7696   4.999  -1.312  -0.772 -0.3570  0.0970 -0.7427
   19CHTO   C91 7697   4.876  -1.383  -0.755 -0.4837  0.5737  0.8519
   19CHTO  H178 7698   4.822  -1.343  -0.669 -4.7027 -0.3184 -1.2425
   19CHTO   C92 7699   4.909  -1.538  -0.737  0.0642 -0.1945  0.5960
   19CHTO  H179 7700   4.986  -1.558  -0.812 -1.8827 -2.5316 -0.8391
   19CHTO   O66 7701   4.966  -1.548  -0.602  0.7910  0.5244 -0.4006
   19CHTO  H166 7702   4.903  -1.584  -0.542  0.7317 -0.7898 -1.2506
   19CHTO   C93 7703   4.784  -1.642  -0.753  1.0863 -0.4755 -0.4697
   19CHTO  H180 7704   4.716  -1.631  -0.667 -0.2540 -0.3724 -1.5277
   19CHTO   N16 7705   4.833  -1.779  -0.767  0.2753 -0.2682 -0.2600
   19CHTO  H172 7706   4.902  -1.801  -0.687  0.0479  3.0097  0.9154
   19CHTO  H173 7707   4.878  -1.789  -0.865  1.5103 -0.9578  0.3656
   19CHTO   C94 7708   4.692  -1.601  -0.868 -0.3285  0.5124 -0.1826
   19CHTO  H181 7709   4.737  -1.619  -0.965 -2.2859 -1.7955 -0.7258
   19CHTO   O61 7710   4.664  -1.460  -0.864 -0.6459  0.1907 -0.2253
   19CHTO   C95 7711   4.784  -1.380  -0.879  1.5566  0.5008  0.9898
   19CHTO  H182 7712   4.835  -1.418  -0.967 -2.0716  2.7677 -2.2216
   19CHTO  C106 7713   4.751  -1.234  -0.929  0.2497  0.0086 -0.5584
   19CHTO   O69 7714   4.668  -1.234  -1.041 -0.3933 -0.1938  0.5610
   19CHTO  H169 7715   4.718  -1.263  -1.115  0.3069 -1.3176  1.4558
   19CHTO   O63 7716   4.546  -1.676  -0.872  0.1531 -0.0044  0.3541
   19CHTO   C96 7717   4.479  -1.683  -0.988 -0.3137 -0.7277 -0.2005
   19CHTO  H183 7718   4.557  -1.683  -1.065  0.2876  1.0447  0.3731
   19CHTO   C98 7719   4.381  -1.560  -1.022  0.3445  0.3307  0.0459
   19CHTO  H185 7720   4.441  -1.468  -1.027 -0.4715  0.9150  0.9284
   19CHTO   O67 7721   4.330  -1.578  -1.150  0.0347  0.1065 -0.2647
   19CHTO  H167 7722   4.386  -1.529  -1.208 -1.4258  1.1714 -0.8122
   19CHTO  C102 7723   4.267  -1.547  -0.918  0.4746 -0.9910 -0.6382
   19CHTO  H189 7724   4.194  -1.481  -0.967  1.7696 -0.8400 -2.4483
   19CHTO   N18 7725   4.296  -1.492  -0.783  0.0847  0.7282 -0.9804
   19CHTO  H176 7726   4.280  -1.385  -0.780 -1.2964  0.4910  0.4990
   19CHTO  H177 7727   4.400  -1.514  -0.764 -0.4955  0.4036  2.1080
   19CHTO  C105 7728   4.192  -1.680  -0.907 -1.2829  0.0816 -0.4342
   19CHTO  H192 7729   4.197  -1.716  -0.805  0.4195  2.9783  0.5501
   19CHTO   O65 7730   4.243  -1.793  -0.985  0.0898 -0.2549 -0.0373
   19CHTO  C100 7731   4.387  -1.817  -0.987 -0.7535  0.1346 -0.7385
   19CHTO  H187 7732   4.407  -1.868  -0.892 -0.3260  1.0686 -0.3326
   19CHTO  C107 7733   4.422  -1.907  -1.103  0.1890 -0.0758  0.4567
   19CHTO   O70 7734   4.420  -1.849  -1.234  0.1781 -0.1316  0.1952
   19CHTO  H170 7735   4.335  -1.863  -1.271  0.2906  0.3869 -0.2523
   19CHTO   O57 7736   4.038  -1.653  -0.945 -0.1319  0.2602 -0.2401
   19CHTO   C85 7737   3.933  -1.748  -0.917  0.3580 -0.0664 -0.9231
   19CHTO  H157 7738   3.972  -1.851  -0.906 -0.9228 -0.4976 -0.1981
   19CHTO   C83 7739   3.855  -1.753  -1.050  0.1717 -0.1560 -0.4345
   19CHTO  H155 7740   3.916  -1.803  -1.126  0.1843 -0.7299 -0.0514
   19CHTO   O56 7741   3.814  -1.616  -1.090  0.0680  0.6479 -0.5326
   19CHTO  H135 7742   3.808  -1.563  -1.013  0.2035  0.1678 -0.1830
   19CHTO   C81 7743   3.733  -1.844  -1.031 -0.1424 -0.7709  0.0202
   19CHTO  H153 7744   3.770  -1.944  -1.009 -1.5125 -1.6576 -1.5744
   19CHTO   N14 7745   3.659  -1.868  -1.164  0.5484 -0.0727  0.3755
   19CHTO  H141 7746   3.717  -1.933  -1.226 -0.2820 -1.0740  0.6268
   19CHTO  H142 7747   3.631  -1.782  -1.221 -0.2898  1.3468  2.8684
   19CHTO   C79 7748   3.639  -1.796  -0.919  0.0582  0.5736  0.3723
   19CHTO  H151 7749   3.569  -1.877  -0.903  0.6246  0.1918  0.9056
   19CHTO   O52 7750   3.713  -1.790  -0.794 -0.4577  0.1538  0.0934
   19CHTO   C86 7751   3.835  -1.707  -0.798  0.0344 -0.5659  0.0467
   19CHTO  H158 7752   3.797  -1.603  -0.809 -1.1459 -0.7926  1.6507
   19CHTO   C90 7753   3.905  -1.705  -0.659 -0.1114  0.3042 -0.6895
   19CHTO   O60 7754   3.936  -1.828  -0.594  0.3071  1.2994  0.3326
   19CHTO  H138 7755   3.862  -1.872  -0.558 -0.2558  0.1305 -2.1251
   19CHTO   O50 7756   3.564  -1.675  -0.951 -0.2616 -0.5113 -0.1447
   19CHTO   C73 7757   3.446  -1.597  -0.922  0.2668 -0.1591 -0.4321
   19CHTO  H145 7758   3.373  -1.653  -0.861 -0.3942  1.3644  0.2047
   19CHTO   C74 7759   3.384  -1.558  -1.061 -0.4983  0.7944  0.6901
   19CHTO  H146 7760   3.366  -1.648  -1.121  2.6773  1.0032 -0.6755
   19CHTO   O54 7761   3.252  -1.493  -1.045 -0.0913 -0.1581  0.0839
   19CHTO  H133 7762   3.208  -1.536  -0.974  0.0355  1.1327  0.9587
   19CHTO   C75 7763   3.482  -1.457  -1.135  0.3851 -0.5973  0.4310
   19CHTO  H147 7764   3.577  -1.507  -1.155  1.4675  1.6543 -0.2527
   19CHTO   N13 7765   3.432  -1.403  -1.263 -0.0260 -0.1486 -0.1662
   19CHTO  H139 7766   3.345  -1.343  -1.242  0.5242  0.2653  0.9698
   19CHTO  H140 7767   3.504  -1.334  -1.306  0.1711 -0.9814 -1.1959
   19CHTO   C76 7768   3.541  -1.339  -1.041 -0.7475 -0.3224  0.6229
   19CHTO  H148 7769   3.456  -1.272  -1.023  0.0775  0.3941  1.9742
   19CHTO   O49 7770   3.587  -1.395  -0.918  0.7693  0.0507  0.2102
   19CHTO   C77 7771   3.486  -1.466  -0.845  0.2941 -0.3987  0.0761
   19CHTO  H149 7772   3.396  -1.405  -0.839  0.1305 -0.5361 -0.8509
   19CHTO   C88 7773   3.535  -1.480  -0.702  0.5533 -0.1540 -0.1042
   19CHTO   O58 7774   3.517  -1.374  -0.611  0.0503 -0.1955 -0.6727
   19CHTO  H136 7775   3.557  -1.292  -0.634 -0.9211  0.8866  1.3891
   19CHTO   O51 7776   3.660  -1.275  -1.101  0.2728  0.1294 -0.2105
   19CHTO   C78 7777   3.688  -1.135  -1.030 -0.4809 -0.1189 -0.3130
   19CHTO  H150 7778   3.626  -1.130  -0.938  1.7048 -1.4526  1.2782
   19CHTO   C80 7779   3.636  -1.020  -1.123 -0.1966 -0.2697  0.2306
   19CHTO  H152 7780   3.696  -1.014  -1.216 -2.0863 -1.8281 -1.1367
   19CHTO   O55 7781   3.502  -1.053  -1.160 -0.1391  0.0021 -0.0490
   19CHTO  H134 7782   3.474  -0.985  -1.218  0.0200 -0.8224 -1.1148
   19CHTO   C84 7783   3.639  -0.878  -1.044 -0.5408  0.6569 -0.0615
   19CHTO  H156 7784   3.566  -0.887  -0.964 -1.5240  0.7923 -0.9366
   19CHTO   N15 7785   3.595  -0.761  -1.128  1.1185 -0.0488  0.1648
   19CHTO  H143 7786   3.676  -0.691  -1.140  1.6771 -0.7249 -0.0551
   19CHTO  H144 7787   3.563  -0.795  -1.224  1.1888  0.2603  0.0321
   19CHTO   C87 7788   3.778  -0.857  -0.977 -0.8184 -0.1470 -0.3223
   19CHTO  H159 7789   3.858  -0.838  -1.049  1.6436  0.1446  2.4036
   19CHTO   O53 7790   3.833  -1.003  -0.903 -0.0663  0.1205 -0.3676
   19CHTO   C82 7791   3.840  -1.113  -0.994 -0.1006  0.6768 -0.0184
   19CHTO  H154 7792   3.905  -1.095  -1.080  0.0175  0.7033  0.0768
   19CHTO   C89 7793   3.901  -1.240  -0.922  0.0811  0.1459  0.2564
   19CHTO   O59 7794   3.929  -1.348  -1.013 -0.1855  0.5817  0.2509
   19CHTO  H137 7795   3.939  -1.423  -0.957  1.8165 -1.1056 -2.2797
   19CHTO   O45 7796   3.780  -0.720  -0.872  0.5044 -0.1382  0.2239
   19CHTO   C67 7797   3.685  -0.717  -0.762 -0.0613 -0.8481  0.0223
   19CHTO  H124 7798   3.585  -0.728  -0.805 -0.3375 -1.8959  0.9286
   19CHTO   C65 7799   3.695  -0.838  -0.656 -0.1727  0.5697  0.0803
   19CHTO  H122 7800   3.798  -0.874  -0.654 -0.9315 -1.7418 -1.2375
   19CHTO   O44 7801   3.607  -0.944  -0.708  0.1338  0.2026  0.0048
   19CHTO  H102 7802   3.520  -0.914  -0.723  0.7736  1.9504 -0.3371
   19CHTO   C63 7803   3.667  -0.786  -0.504  0.5749  0.8030 -0.0263
   19CHTO  H120 7804   3.761  -0.750  -0.462  0.3414  1.4709 -0.0717
   19CHTO   N11 7805   3.628  -0.894  -0.407 -0.1520  0.0437  0.0897
   19CHTO  H108 7806   3.615  -0.841  -0.314  0.7163  2.7190 -1.2526
   19CHTO  H109 7807   3.532  -0.932  -0.434 -0.7628  1.6122 -0.0268
   19CHTO   C61 7808   3.560  -0.664  -0.499 -0.2666 -0.3814  0.2777
   19CHTO  H118 7809   3.574  -0.613  -0.403 -1.7667  2.0413 -0.7362
   19CHTO   O40 7810   3.577  -0.566  -0.602  0.3072  0.1436  0.1470
   19CHTO   C68 7811   3.684  -0.580  -0.697 -0.1519  0.5128  0.3500
   19CHTO  H125 7812   3.782  -0.566  -0.645 -0.1431 -2.2807  1.1628
   19CHTO   C72 7813   3.669  -0.461  -0.798 -0.5198 -0.6993  0.3122
   19CHTO   O48 7814   3.547  -0.462  -0.870  0.1592  0.1424 -0.3863
   19CHTO  H105 7815   3.563  -0.406  -0.944 -0.0440  0.8181  0.0720
   19CHTO   O38 7816   3.422  -0.696  -0.500 -0.1556 -0.0538 -0.7308
   19CHTO   C55 7817   3.321  -0.594  -0.469  0.2740  0.3883  0.7850
   19CHTO  H112 7818   3.356  -0.495  -0.500  0.5105 -0.2361 -0.9705
   19CHTO   C56 7819   3.271  -0.602  -0.319 -0.1269 -0.3234  0.0696
   19CHTO  H113 7820   3.239  -0.704  -0.294  1.6632 -0.3255  2.5356
   19CHTO   O42 7821   3.384  -0.580  -0.233  0.1406 -0.2849  0.4057
   19CHTO  H100 7822   3.442  -0.647  -0.261  0.0283 -0.5521  0.8056
   19CHTO   C57 7823   3.146  -0.506  -0.290  0.3283 -0.6657 -0.1858
   19CHTO  H114 7824   3.180  -0.402  -0.288  1.6900 -0.9525 -3.9165
   19CHTO   N10 7825   3.076  -0.531  -0.159  0.4460  0.1937  0.2054
   19CHTO  H106 7826   3.004  -0.611  -0.172 -0.7621  1.1978  0.5934
   19CHTO  H107 7827   3.153  -0.570  -0.095  0.0837 -0.4622  0.2488
   19CHTO   C58 7828   3.045  -0.523  -0.406 -0.4997  0.2726 -0.0669
   19CHTO  H115 7829   2.998  -0.623  -0.399  0.1282  0.0077  0.4261
   19CHTO   O37 7830   3.108  -0.519  -0.537  0.0455  0.5615 -0.0754
   19CHTO   C59 7831   3.197  -0.628  -0.553 -0.0991  0.5083 -0.5490
   19CHTO  H116 7832   3.146  -0.722  -0.532  1.8584 -0.3175  0.6288
   19CHTO   C70 7833   3.237  -0.647  -0.701 -0.3898 -0.4307 -0.6610
   19CHTO   O46 7834   3.301  -0.770  -0.735  0.0968  0.5677  0.1363
   19CHTO  H103 7835   3.351  -0.771  -0.815  0.7146 -0.9221  0.5044
   19CHTO   O39 7836   2.935  -0.412  -0.415 -1.0226 -0.4121  0.0592
   19CHTO   C60 7837   2.855  -0.398  -0.536 -0.1931 -0.1255 -0.2697
   19CHTO  H117 7838   2.906  -0.453  -0.615 -0.2504 -0.5252 -0.0255
   19CHTO   C62 7839   2.710  -0.464  -0.535 -0.4418  0.2464  0.6487
   19CHTO  H119 7840   2.728  -0.570  -0.509 -0.2903 -0.4739 -2.1510
   19CHTO   O43 7841   2.625  -0.407  -0.436 -0.0892  0.3627 -0.5482
   19CHTO  H101 7842   2.579  -0.333  -0.470 -0.2273  0.5516  0.0454
   19CHTO   C66 7843   2.649  -0.456  -0.682 -0.0782  0.1488 -0.4661
   19CHTO  H123 7844   2.719  -0.511  -0.745  0.6357  1.1861 -0.5901
   19CHTO   N12 7845   2.520  -0.525  -0.699  0.3231  0.3299  0.2569
   19CHTO  H110 7846   2.532  -0.608  -0.766 -3.0004  0.7529 -0.9186
   19CHTO  H111 7847   2.473  -0.550  -0.605 -1.4496 -0.2487 -0.7749
   19CHTO   C69 7848   2.639  -0.312  -0.740  0.1878 -0.4334  0.6296
   19CHTO  H126 7849   2.555  -0.253  -0.697  0.8493  1.0407 -0.0741
   19CHTO   O41 7850   2.760  -0.229  -0.707 -0.3094  0.0297 -0.3970
   19CHTO   C64 7851   2.838  -0.253  -0.582  0.2048  0.3505 -0.6676
   19CHTO  H121 7852   2.793  -0.192  -0.501 -1.2175  0.0676 -1.2393
   19CHTO   C71 7853   2.979  -0.196  -0.605  0.5792 -0.0360  0.2148
   19CHTO   O47 7854   3.047  -0.257  -0.711 -0.0119  0.4025  0.3725
   19CHTO  H104 7855   2.992  -0.262  -0.787  1.6516  0.9842 -0.9074
   19CHTO   O34 7856   2.622  -0.316  -0.890 -0.2353  0.6767  0.6026
   19CHTO   C49 7857   2.723  -0.272  -0.994  0.0217 -0.2162  0.1731
   19CHTO   H91 7858   2.755  -0.173  -0.963  0.4120 -0.1248 -0.5024
   19CHTO   C47 7859   2.662  -0.272  -1.139  0.1164  0.1228 -1.3186
   19CHTO   H89 7860   2.731  -0.219  -1.208  1.2949 -0.6262 -0.7256
   19CHTO   O33 7861   2.537  -0.198  -1.130  0.1229 -0.3622 -0.0868
   19CHTO   H70 7862   2.491  -0.231  -1.205 -0.0021  0.1169 -0.2217
   19CHTO   C45 7863   2.650  -0.426  -1.190 -0.0471  0.1289  0.7565
   19CHTO   H87 7864   2.579  -0.476  -1.123  0.3330  0.9964  1.8069
   19CHTO    N8 7865   2.584  -0.426  -1.326  0.2295  0.9520 -0.1182
   19CHTO   H75 7866   2.528  -0.517  -1.337  0.2834  0.8520  0.4092
   19CHTO   H76 7867   2.530  -0.334  -1.343 -1.3284  0.1756  0.4598
   19CHTO   C43 7868   2.782  -0.513  -1.181  0.6015 -0.0912 -0.6077
   19CHTO   H85 7869   2.757  -0.618  -1.198  1.3371 -0.6613  1.6206
   19CHTO   O29 7870   2.839  -0.492  -1.049 -0.3941  0.4424  0.1198
   19CHTO   C50 7871   2.856  -0.357  -0.991 -0.3292 -0.0191  0.0896
   19CHTO   H92 7872   2.879  -0.365  -0.884 -2.0825 -0.7382  0.4165
   19CHTO   C54 7873   2.985  -0.295  -1.051  0.3856  0.6879  0.0965
   19CHTO   O36 7874   3.015  -0.166  -1.010 -0.0591  0.3479 -0.5645
   19CHTO   H72 7875   3.082  -0.127  -1.063  0.9976 -1.3235 -0.5037
   19CHTO   O27 7876   2.883  -0.484  -1.280 -0.1051 -0.5011  0.2536
   19CHTO   C37 7877   2.944  -0.585  -1.357 -0.1033  0.1003 -0.1478
   19CHTO   H79 7878   2.885  -0.677  -1.362  2.0235 -1.4615  2.3718
   19CHTO   C38 7879   2.958  -0.538  -1.505  0.1486 -0.9611  0.1752
   19CHTO   H80 7880   3.019  -0.447  -1.511  1.5921 -1.9031  0.2756
   19CHTO   O31 7881   2.829  -0.501  -1.556 -0.1878 -0.0911 -0.0984
   19CHTO   H68 7882   2.807  -0.566  -1.619 -0.0882 -1.0652  0.8466
   19CHTO   C39 7883   3.026  -0.650  -1.591 -0.6944  0.1200  0.3967
   19CHTO   H81 7884   2.958  -0.735  -1.599 -0.0582 -0.5163  1.5474
   19CHTO    N7 7885   3.058  -0.610  -1.736  0.1511  0.0675 -0.3343
   19CHTO   H73 7886   3.152  -0.657  -1.760  0.7717 -0.1833  2.4281
   19CHTO   H74 7887   2.981  -0.635  -1.808  0.6809 -1.8322 -0.2829
   19CHTO   C40 7888   3.163  -0.688  -1.520 -0.0239 -0.3574  0.7173
   19CHTO   H82 7889   3.243  -0.614  -1.529 -1.6239  1.1021 -2.2855
   19CHTO   O26 7890   3.148  -0.731  -1.387  0.0450  0.4988 -0.1117
   19CHTO   C41 7891   3.089  -0.622  -1.304  0.6861 -1.0222  0.0041
   19CHTO   H83 7892   3.149  -0.531  -1.301 -1.0323  0.0871  2.4513
   19CHTO   C52 7893   3.098  -0.671  -1.155  0.0073  0.1856 -0.1428
   19CHTO   O35 7894   3.231  -0.709  -1.106  0.0498 -0.2493 -0.5404
   19CHTO   H71 7895   3.248  -0.683  -1.018 -0.4841 -1.5218 -0.0431
   19CHTO   O28 7896   3.222  -0.807  -1.578 -0.2193 -0.0095  0.5661
   19CHTO   C42 7897   3.367  -0.831  -1.586  0.6293 -0.0127 -0.0931
   19CHTO   H84 7898   3.404  -0.790  -1.492  0.1078  1.8597 -0.6863
   19CHTO   C44 7899   3.449  -0.764  -1.702  0.3179  0.5656  0.0985
   19CHTO   H86 7900   3.417  -0.815  -1.793  0.9807  1.6008 -0.7278
   19CHTO   O32 7901   3.418  -0.624  -1.705 -0.1083  0.3421  0.3351
   19CHTO   H69 7902   3.413  -0.604  -1.796  1.1041 -1.1708 -0.0822
   19CHTO   C48 7903   3.604  -0.787  -1.676  1.1678 -0.6787  0.7103
   19CHTO   H90 7904   3.619  -0.744  -1.576 -1.2914  1.8402  0.0574
   19CHTO    N9 7905   3.697  -0.719  -1.776 -0.3777  0.2359 -0.3338
   19CHTO   H77 7906   3.784  -0.671  -1.734  0.5048 -1.9200  0.3852
   19CHTO   H78 7907   3.724  -0.786  -1.856 -1.0708  1.3959 -1.5616
   19CHTO   C51 7908   3.621  -0.940  -1.668  0.3596  0.7362 -0.3198
   19CHTO   H93 7909   3.583  -0.978  -1.763  0.6654 -1.7649  0.5173
   19CHTO   O30 7910   3.541  -0.984  -1.557 -0.0900 -0.1009  0.4337
   19CHTO   C46 7911   3.396  -0.981  -1.580  0.1836 -0.6808  0.1784
   19CHTO   H88 7912   3.366  -1.037  -1.668  0.8625  1.1020 -1.1944
   19CHTO   C53 7913   3.336  -1.045  -1.458 -0.1503  0.1429  0.3496
   19CHTO   O72 7914   3.325  -1.185  -1.467 -0.1568  0.5667 -0.1163
   19CHTO  H199 7915   3.334  -1.233  -1.387  0.2574 -1.7650 -1.5382
   19CHTO   O22 7916   3.749  -0.992  -1.637  0.0451 -0.1766 -0.1545
   19CHTO   C31 7917   3.784  -1.115  -1.711 -0.3070  0.1000 -0.2935
   19CHTO   H59 7918   3.689  -1.171  -1.719 -1.1125  1.3681  0.2928
   19CHTO   C29 7919   3.844  -1.097  -1.853  0.2879 -0.0797 -0.1155
   19CHTO   H57 7920   3.921  -1.021  -1.838 -1.5145  1.3449  2.1215
   19CHTO   O21 7921   3.738  -1.049  -1.939  0.2806  0.6920  0.7380
   19CHTO   H37 7922   3.768  -1.010  -2.019  0.2094 -0.7665 -0.0056
   19CHTO   C27 7923   3.903  -1.234  -1.926 -0.3295 -0.5594 -0.7085
   19CHTO   H55 7924   3.818  -1.302  -1.937 -2.4088  1.3036  2.9785
   19CHTO    N5 7925   3.965  -1.213  -2.056  0.0893  0.4291  0.5373
   19CHTO   H43 7926   3.901  -1.151  -2.116 -0.2846 -1.2213 -0.8172
   19CHTO   H44 7927   3.982  -1.310  -2.100  2.1228  1.0060  0.0088
   19CHTO   C25 7928   3.994  -1.312  -1.829 -0.3164  0.1905 -0.3339
   19CHTO   H53 7929   4.085  -1.251  -1.815  1.3226 -1.9224 -1.5447
   19CHTO   O17 7930   3.919  -1.325  -1.703  0.0495  0.4739  0.2695
   19CHTO   C32 7931   3.875  -1.211  -1.630  0.0330  0.9316  0.6077
   19CHTO   H60 7932   3.964  -1.155  -1.601 -0.8942  3.0698 -0.5877
   19CHTO   C36 7933   3.797  -1.258  -1.507  0.8575  0.3932  0.5518
   19CHTO   O25 7934   3.783  -1.147  -1.419 -0.0450  0.2311 -0.3833
   19CHTO   H40 7935   3.691  -1.138  -1.400 -0.3292 -2.6266 -0.2383
   19CHTO   O15 7936   4.036  -1.467  -1.884 -0.1744 -1.0489  0.0698
   19CHTO   C19 7937   4.097  -1.531  -1.994  0.8292 -0.6934 -0.8716
   19CHTO   H47 7938   4.050  -1.490  -2.085 -0.0166 -1.9147 -0.9987
   19CHTO   C20 7939   4.248  -1.511  -2.006  0.8052 -0.1916  0.5377
   19CHTO   H48 7940   4.300  -1.532  -1.911 -0.2613  0.2979  1.2481
   19CHTO   O19 7941   4.271  -1.370  -2.033  0.0291  0.1930  0.0426
   19CHTO   H35 7942   4.234  -1.318  -1.965 -3.0060 -2.2200  0.3209
   19CHTO   C21 7943   4.307  -1.593  -2.123 -0.0246 -0.1036 -0.4693
   19CHTO   H49 7944   4.268  -1.558  -2.219 -0.0680 -0.6533 -0.6540
   19CHTO    N4 7945   4.452  -1.595  -2.132  0.3615 -0.2954  0.0164
   19CHTO   H41 7946   4.486  -1.691  -2.096  1.5567  0.4853  1.0020
   19CHTO   H42 7947   4.478  -1.593  -2.236  2.1283  0.2756  0.4522
   19CHTO   C22 7948   4.253  -1.737  -2.122  0.1086  0.6581  0.2372
   19CHTO   H50 7949   4.297  -1.795  -2.042  3.2315  0.6216 -1.4284
   19CHTO   O14 7950   4.108  -1.738  -2.112 -0.0431  0.0702 -0.6432
   19CHTO   C23 7951   4.058  -1.681  -1.995 -0.5460  0.8577 -0.2081
   19CHTO   H51 7952   4.099  -1.735  -1.908 -1.5937  0.1435 -0.1469
   19CHTO   C34 7953   3.905  -1.701  -1.984 -0.2402 -0.2815 -0.4685
   19CHTO   O23 7954   3.868  -1.834  -1.981  0.0915  0.4454  0.5111
   19CHTO   H38 7955   3.791  -1.842  -1.929  0.2771 -1.1278  0.5760
   19CHTO   O16 7956   4.266  -1.799  -2.243 -0.4553  0.3483  0.4256
   19CHTO   C24 7957   4.265  -1.966  -2.220  0.2321  0.2779 -0.2603
   19CHTO   H52 7958   4.218  -1.990  -2.124 -0.1895  0.9023 -0.3074
   19CHTO   C26 7959   4.409  -2.019  -2.234 -0.2336 -0.5900  0.7407
   19CHTO   H54 7960   4.448  -1.986  -2.332  0.0250 -0.4395  0.8939
   19CHTO   O20 7961   4.494  -1.963  -2.131  0.2476  0.1013 -0.0959
   19CHTO   H36 7962   4.539  -1.889  -2.166 -1.3202  1.3249  0.4390
   19CHTO   C30 7963   4.412  -2.175  -2.230 -0.5448  0.1891  0.2874
   19CHTO   H58 7964   4.390  -2.212  -2.129 -1.0180  0.7895  0.4085
   19CHTO    N6 7965   4.550  -2.227  -2.257 -0.4056 -0.5131 -0.9781
   19CHTO   H45 7966   4.598  -2.180  -2.342  0.2785  2.2437  0.8682
   19CHTO   H46 7967   4.617  -2.218  -2.173  0.5125  2.1378 -1.9484
   19CHTO   C33 7968   4.310  -2.243  -2.329  0.1683 -0.2345  0.1359
   19CHTO   H61 7969   4.345  -2.222  -2.432 -0.5332  1.0181  0.1406
   19CHTO   O18 7970   4.185  -2.179  -2.311  0.1083 -0.2664 -0.0300
   19CHTO   C28 7971   4.172  -2.033  -2.326  0.2004 -0.4835 -0.0173
   19CHTO   H56 7972   4.203  -1.991  -2.422  0.4157  0.0696  0.2897
   19CHTO   C35 7973   4.019  -2.000  -2.314 -0.1318 -0.2010  0.5122
   19CHTO   O24 7974   3.948  -2.065  -2.203  0.3418 -0.3888  0.2133
   19CHTO   H39 7975   3.872  -2.110  -2.235 -0.8794  0.8798  1.2543
   19CHTO    O9 7976   4.299  -2.386  -2.317 -0.0821 -0.3217  0.1185
   19CHTO   C13 7977   4.232  -2.457  -2.433 -0.8105 -0.0164 -0.0543
   19CHTO   H26 7978   4.267  -2.404  -2.524  1.7689  2.3922  2.2352
   19CHTO   C11 7979   4.077  -2.447  -2.415 -0.4426  0.1287  0.0708
   19CHTO   H24 7980   4.057  -2.344  -2.449  1.4185  1.2801  2.2984
   19CHTO    O8 7981   4.039  -2.452  -2.280 -0.3891 -0.1365 -0.0656
   19CHTO    H3 7982   3.951  -2.423  -2.267 -0.4437  0.3866 -1.5271
   19CHTO    C9 7983   4.002  -2.547  -2.505  0.6855  0.4393  0.3904
   19CHTO   H22 7984   4.035  -2.511  -2.604  2.6570  1.7388  1.4838
   19CHTO    N2 7985   3.849  -2.538  -2.501  0.2753 -0.0617  0.0052
   19CHTO   H10 7986   3.816  -2.630  -2.546  1.1238 -0.2341 -0.2820
   19CHTO   H11 7987   3.820  -2.453  -2.561 -1.5414 -0.7853 -0.1456
   19CHTO    C7 7988   4.050  -2.695  -2.473  0.1112 -0.2972  0.0746
   19CHTO   H20 7989   3.990  -2.757  -2.542  0.8557  1.3366 -2.0841
   19CHTO    O4 7990   4.189  -2.707  -2.495 -0.2499 -0.1378 -0.0555
   19CHTO   C14 7991   4.285  -2.614  -2.442 -0.6701  0.1793 -0.7779
   19CHTO   H27 7992   4.371  -2.611  -2.512 -0.2343 -0.7309 -0.2833
   19CHTO   C18 7993   4.342  -2.672  -2.305  0.2402 -0.3810  0.1897
   19CHTO   O13 7994   4.442  -2.772  -2.334  0.3989 -0.3124  0.1975
   19CHTO    H7 7995   4.521  -2.736  -2.369  0.1496  1.7626  1.6792
   19CHTO    O2 7996   4.012  -2.746  -2.312 -0.2187 -0.2131  0.9086
   19CHTO    C1 7997   3.955  -2.877  -2.298  0.2149 -0.4456 -0.1158
   19CHTO   H14 7998   4.002  -2.940  -2.375 -0.1083 -0.2223 -0.5002
   19CHTO    C2 7999   3.798  -2.889  -2.299  0.0009  0.2863  0.7794
   19CHTO   H15 8000   3.756  -2.811  -2.234 -0.6740  0.1675  0.4951
   19CHTO    O6 8001   3.756  -2.858  -2.438  0.3399  0.0937 -0.4082
   19CHTO    H1 8002   3.664  -2.864  -2.451  0.5453  1.2986 -2.6524
   19CHTO    C3 8003   3.750  -3.035  -2.253  0.2107  0.1236  0.3597
   19CHTO   H16 8004   3.774  -3.114  -2.327  0.0413  0.3303  0.0813
   19CHTO    N1 8005   3.598  -3.048  -2.250 -0.0879 -0.1271 -0.7545
   19CHTO    H8 8006   3.554  -3.016  -2.343 -2.3753  1.4424  0.8394
   19CHTO    H9 8007   3.562  -2.986  -2.170 -1.1215  0.8141 -1.9391
   19CHTO    C4 8008   3.816  -3.081  -2.119  0.3143 -0.0740 -0.6484
   19CHTO   H17 8009   3.773  -3.024  -2.037 -2.9089 -2.6298 -0.4636
   19CHTO    O1 8010   3.960  -3.067  -2.132  0.3620 -0.2935  0.2314
   19CHTO    C5 8011   3.999  -2.934  -2.151  0.0760  0.1619  0.2839
   19CHTO   H18 8012   3.966  -2.877  -2.065 -1.0097 -1.1347  0.7476
   19CHTO   C16 8013   4.152  -2.944  -2.132 -0.1095  0.6833  0.2917
   19CHTO   O11 8014   4.219  -3.009  -2.244  0.5288 -0.1537  0.3535
   19CHTO    H5 8015   4.292  -2.952  -2.259  1.1691 -1.8119 -3.0804
   19CHTO    O3 8016   3.795  -3.219  -2.089 -0.1094  0.2915 -0.1924
   19CHTO    C6 8017   3.845  -3.277  -1.960 -0.7142  0.1497 -0.2123
   19CHTO   H19 8018   3.913  -3.216  -1.900 -2.2135  0.9412  0.7298
   19CHTO    C8 8019   3.715  -3.295  -1.879  0.1356  0.7348 -0.0551
   19CHTO   H21 8020   3.636  -3.337  -1.941 -1.2066 -0.1576  2.2041
   19CHTO    O7 8021   3.669  -3.162  -1.844 -0.5988 -0.4872  0.0262
   19CHTO    H2 8022   3.668  -3.148  -1.752 -0.6711  2.3723 -0.3574
   19CHTO   C12 8023   3.747  -3.384  -1.751  0.2717 -0.0235  0.1280
   19CHTO   H25 8024   3.821  -3.330  -1.688 -1.1518  2.2103 -0.0487
   19CHTO    N3 8025   3.628  -3.410  -1.665 -0.1610  0.1262 -0.4245
   19CHTO   H12 8026   3.629  -3.509  -1.623 -0.8946 -1.6511 -4.3846
   19CHTO   H13 8027   3.606  -3.332  -1.593  0.0148 -3.3740  3.6482
   19CHTO   C15 8028   3.817  -3.521  -1.796 -0.1461 -0.0042 -0.0038
   19CHTO   H28 8029   3.748  -3.581  -1.855 -0.0535  1.0370 -1.1792
   19CHTO   O10 8030   3.901  -3.599  -1.689 -0.1745  0.4697 -0.3983
   19CHTO    H4 8031   3.849  -3.611  -1.611 -0.0471 -0.0182 -0.3894
   19CHTO    O5 8032   3.937  -3.487  -1.873 -0.3528  0.1505 -0.0269
   19CHTO   C10 8033   3.913  -3.407  -1.991 -0.2241  0.5022 -0.1704
   19CHTO   H23 8034   3.841  -3.462  -2.052 -0.7326 -2.4053  2.8940
   19CHTO   C17 8035   4.043  -3.388  -2.068 -0.2171  0.9657 -0.3413
   19CHTO   O12 8036   4.087  -3.517  -2.123  0.3862  0.4975  0.4957
   19CHTO    H6 8037   4.179  -3.514  -2.144 -0.0792  0.2066 -1.7215
   20CHTO  H203 8038   5.120   1.466   2.249  0.8274 -2.3291 -0.0019
   20CHTO   O82 8039   5.062   1.473   2.176  0.8427 -0.3118  0.1466
   20CHTO  C123 8040   5.030   1.608   2.133 -0.3888 -0.5332 -0.8973
   20CHTO  H227 8041   4.944   1.637   2.196 -0.2003 -2.4040  0.2626
   20CHTO   O77 8042   5.149   1.688   2.162  0.5469  0.8250  0.0450
   20CHTO  C118 8043   5.139   1.827   2.139  0.8756 -0.2332 -0.6666
   20CHTO  H222 8044   5.058   1.885   2.186  0.7765  0.0108 -1.1386
   20CHTO  C125 8045   5.271   1.897   2.195 -0.3367  0.6758  0.5393
   20CHTO   O84 8046   5.391   1.838   2.131  0.4567 -0.0839  0.3781
   20CHTO  H205 8047   5.391   1.834   2.037  1.0111 -0.1748  0.3792
   20CHTO  C114 8048   5.121   1.844   1.986  0.6234  0.4631  0.1205
   20CHTO  H218 8049   5.205   1.799   1.932 -0.5938 -2.7331  0.7959
   20CHTO  C116 8050   4.998   1.771   1.932  0.3057  0.7036  0.1086
   20CHTO  H220 8051   4.905   1.818   1.972 -0.0028 -1.2645  1.7777
   20CHTO   O79 8052   4.991   1.780   1.787 -0.3267 -0.6898 -0.1523
   20CHTO  H201 8053   5.067   1.740   1.749 -0.1037  0.9754 -1.5496
   20CHTO  C120 8054   4.995   1.624   1.984 -0.3423 -0.1759 -0.1497
   20CHTO  H224 8055   5.069   1.573   1.919  1.6753  0.4566  1.6029
   20CHTO   N21 8056   4.867   1.554   1.955 -0.2923 -0.4221  0.5190
   20CHTO  H211 8057   4.784   1.581   2.019  0.4779  0.5458  1.1189
   20CHTO  H212 8058   4.838   1.547   1.851 -0.5284 -0.0588  0.5622
   20CHTO   O75 8059   5.128   1.989   1.967 -0.2891 -0.4708  0.6274
   20CHTO  C112 8060   5.199   2.029   1.833  0.9277 -0.1856  0.8189
   20CHTO  H216 8061   5.158   1.965   1.754 -3.0392  1.6076  1.3153
   20CHTO   O73 8062   5.339   2.011   1.848  0.4096  0.1624  0.7736
   20CHTO  C113 8063   5.424   2.050   1.732  0.3343  0.1629  0.5095
   20CHTO  H217 8064   5.376   2.005   1.643 -0.6822 -0.0606  1.1695
   20CHTO  C124 8065   5.561   1.982   1.743 -0.2483 -0.3963 -0.1053
   20CHTO   O83 8066   5.628   2.021   1.865  0.4247  0.1232  0.1288
   20CHTO  H204 8067   5.701   1.964   1.883  0.6902  0.6950  0.8994
   20CHTO  C109 8068   5.409   2.203   1.713 -0.2577  0.3736  1.0080
   20CHTO  H213 8069   5.445   2.254   1.803 -1.2910  0.8779  1.1400
   20CHTO  C110 8070   5.259   2.230   1.687  0.3230 -0.3037  0.1640
   20CHTO  H214 8071   5.235   2.189   1.589  3.4922  1.0360 -1.2228
   20CHTO   O78 8072   5.222   2.365   1.657 -0.1581 -0.0570 -0.1440
   20CHTO  H200 8073   5.132   2.382   1.678 -0.5237 -0.5779 -1.2621
   20CHTO  C111 8074   5.167   2.180   1.800  0.1121 -0.5837 -0.0015
   20CHTO  H215 8075   5.190   2.250   1.882 -0.6934  2.8081 -2.5681
   20CHTO   N19 8076   5.017   2.189   1.775 -0.0256 -0.1127 -0.0036
   20CHTO  H207 8077   4.981   2.268   1.839  4.1177  0.0956  2.3064
   20CHTO  H208 8078   4.996   2.185   1.669  1.9566 -1.4816 -0.3901
   20CHTO   O74 8079   5.497   2.244   1.597  0.1022  0.4291 -0.1140
   20CHTO  C115 8080   5.544   2.392   1.621 -0.7861  0.2020  0.6241
   20CHTO  H219 8081   5.470   2.453   1.672  0.2106  1.7714  0.2067
   20CHTO   O76 8082   5.671   2.396   1.711  0.0377  0.4754  0.2052
   20CHTO  C122 8083   5.787   2.357   1.646 -0.2664 -0.2079 -0.2297
   20CHTO  H226 8084   5.759   2.262   1.602 -1.3646  0.7986 -1.7269
   20CHTO  C126 8085   5.910   2.335   1.744  0.8716  0.1550 -0.3501
   20CHTO   O85 8086   5.887   2.232   1.844  0.7660  0.0438  0.2273
   20CHTO  H206 8087   5.883   2.272   1.929 -0.0442 -0.8571  0.6244
   20CHTO  C121 8088   5.822   2.472   1.544  0.3682 -0.1205 -0.1089
   20CHTO  H225 8089   5.900   2.542   1.580 -0.2149  1.6450 -2.1638
   20CHTO   O81 8090   5.885   2.412   1.429  0.6572  0.5487 -0.0173
   20CHTO  H202 8091   5.869   2.321   1.412 -0.6741  0.8055 -0.2359
   20CHTO  C119 8092   5.708   2.558   1.493 -0.3823  0.9918 -0.2171
   20CHTO  H223 8093   5.703   2.630   1.575  0.0759  0.9777 -0.1782
   20CHTO  C117 8094   5.580   2.470   1.484  0.8193 -0.3188  0.0072
   20CHTO  H221 8095   5.584   2.391   1.409  2.3522 -3.1314  2.9286
   20CHTO   N20 8096   5.464   2.559   1.444  0.0146  0.1581 -0.1341
   20CHTO  H209 8097   5.387   2.578   1.517  0.3739  0.0750  0.2660
   20CHTO  H210 8098   5.424   2.529   1.348 -0.3724  1.6677 -0.4667
   20CHTO   O80 8099   5.742   2.656   1.368  0.0708 -0.7838 -0.0464
   20CHTO  C103 8100   5.765   2.607   1.212  0.5754 -0.0246  0.2842
   20CHTO  H190 8101   5.869   2.624   1.182  0.1410  0.5309 -0.9058
   20CHTO  C101 8102   5.695   2.470   1.157  0.1065 -0.3932  0.2457
   20CHTO  H188 8103   5.603   2.444   1.209  0.4118  0.5640  1.2646
   20CHTO   O68 8104   5.778   2.370   1.190 -0.0688  0.2047 -0.9485
   20CHTO  H168 8105   5.767   2.298   1.130 -0.9567  1.7926 -2.7723
   20CHTO   C99 8106   5.673   2.472   0.995 -0.2737  0.4905 -0.4395
   20CHTO  H186 8107   5.774   2.468   0.949 -0.7587  0.4830 -1.5396
   20CHTO   N17 8108   5.592   2.357   0.952  0.0827  0.5746 -0.4379
   20CHTO  H174 8109   5.587   2.357   0.844 -0.7806 -1.5543 -0.4250
   20CHTO  H175 8110   5.489   2.379   0.976  0.0239 -0.7106  0.5333
   20CHTO   C97 8111   5.608   2.602   0.957  0.2360  0.1781  0.8342
   20CHTO  H184 8112   5.502   2.602   0.985  0.2553  0.6785  0.8977
   20CHTO   O64 8113   5.679   2.721   1.006  0.7594 -0.1615 -0.5732
   20CHTO  C104 8114   5.681   2.729   1.146 -0.2673 -0.6264 -0.5082
   20CHTO  H191 8115   5.578   2.731   1.180  0.2500  2.4208  1.0705
   20CHTO  C108 8116   5.747   2.864   1.183 -0.4973  0.2818  0.0714
   20CHTO   O71 8117   5.668   2.978   1.146 -0.0079  0.6323 -0.0224
   20CHTO  H171 8118   5.617   2.965   1.069 -1.0096 -1.1703  0.9015
   20CHTO   O62 8119   5.624   2.627   0.812 -0.3188  0.0044 -0.6512
   20CHTO   C91 8120   5.528   2.715   0.753 -0.2816  0.4544 -0.3111
   20CHTO  H178 8121   5.466   2.760   0.830 -0.5953 -1.7177  0.7432
   20CHTO   C92 8122   5.421   2.623   0.673 -0.1458 -0.6967 -0.4036
   20CHTO  H179 8123   5.470   2.565   0.593 -1.8620 -0.7658 -1.4148
   20CHTO   O66 8124   5.354   2.539   0.771 -0.2447  0.3760  0.4650
   20CHTO  H166 8125   5.362   2.453   0.734 -0.2005  0.4949  0.1989
   20CHTO   C93 8126   5.313   2.716   0.611 -0.6827  0.0677 -0.4763
   20CHTO  H180 8127   5.243   2.757   0.685  1.0765  2.3319 -0.0356
   20CHTO   N16 8128   5.222   2.631   0.523  0.1278  0.2868  0.2213
   20CHTO  H172 8129   5.123   2.671   0.508  0.7049  1.1988 -1.2630
   20CHTO  H173 8130   5.271   2.618   0.427 -0.6726 -0.0408 -0.1433
   20CHTO   C94 8131   5.367   2.835   0.528  0.4669 -0.3940 -0.1915
   20CHTO  H181 8132   5.407   2.809   0.429  1.4562  1.0689 -0.1975
   20CHTO   O61 8133   5.474   2.898   0.602 -0.5619 -0.4870 -0.5080
   20CHTO   C95 8134   5.582   2.824   0.655 -0.7530  0.2939  0.5292
   20CHTO  H182 8135   5.632   2.776   0.571  1.6096  1.7833  1.0394
   20CHTO  C106 8136   5.680   2.927   0.728 -0.0623  0.0970  0.1815
   20CHTO   O69 8137   5.728   3.011   0.626  0.1610 -0.6001  0.1100
   20CHTO  H169 8138   5.759   3.093   0.659 -0.7801  0.5808 -1.8987
   20CHTO   O63 8139   5.234   2.957   0.529  0.4151 -0.3663 -0.4552
   20CHTO   C96 8140   5.245   3.056   0.405  0.1355 -0.7050 -0.2245
   20CHTO  H183 8141   5.295   3.005   0.322  2.4354  0.7355  0.2138
   20CHTO   C98 8142   5.326   3.184   0.431 -0.3134 -0.0881  0.7029
   20CHTO  H185 8143   5.286   3.235   0.520 -1.7034 -2.1657  1.3168
   20CHTO   O67 8144   5.462   3.146   0.454  0.6482  0.0917  0.4129
   20CHTO  H167 8145   5.500   3.198   0.522  0.3357 -0.2803  0.8795
   20CHTO  C102 8146   5.330   3.283   0.302 -0.0242 -0.3869  0.1387
   20CHTO  H189 8147   5.402   3.243   0.229  1.0047  0.8743  0.4536
   20CHTO   N18 8148   5.373   3.422   0.320 -0.0524 -0.5227  0.1756
   20CHTO  H176 8149   5.430   3.446   0.232  1.7309  0.3532  1.5400
   20CHTO  H177 8150   5.439   3.426   0.406 -0.5973 -0.9150  0.6209
   20CHTO  C105 8151   5.186   3.287   0.234 -0.4516 -0.8901 -0.6490
   20CHTO  H192 8152   5.115   3.343   0.295 -0.3848 -2.3434  0.8059
   20CHTO   O65 8153   5.122   3.157   0.223  0.1663  0.0224  0.0520
   20CHTO  C100 8154   5.112   3.089   0.347 -0.6633  0.1397 -0.4909
   20CHTO  H187 8155   5.059   3.157   0.415  0.9982 -0.3778  1.3600
   20CHTO  C107 8156   5.016   2.969   0.319 -0.0404  0.2095  0.1345
   20CHTO   O70 8157   4.969   2.900   0.432  0.2989 -0.3020  0.1539
   20CHTO  H170 8158   4.914   2.954   0.487 -1.3541 -1.7403 -0.0496
   20CHTO   O57 8159   5.208   3.348   0.087  0.1763 -0.1504 -0.1471
   20CHTO   C85 8160   5.119   3.451   0.030 -0.3823 -0.2479  0.4666
   20CHTO  H157 8161   5.099   3.526   0.109 -1.3083  1.9872 -1.8304
   20CHTO   C83 8162   4.971   3.399  -0.011 -0.2818  0.3004 -0.3314
   20CHTO  H155 8163   4.921   3.359   0.077  1.1172  0.1884  0.4263
   20CHTO   O56 8164   4.994   3.285  -0.095 -0.5121  0.1029  0.0046
   20CHTO  H135 8165   5.046   3.222  -0.048 -1.3387  2.4156  4.3766
   20CHTO   C81 8166   4.883   3.506  -0.073 -0.5959 -0.6955  0.2762
   20CHTO  H153 8167   4.860   3.577   0.006  2.1917 -0.9912  1.4103
   20CHTO   N14 8168   4.746   3.453  -0.105  0.2867  0.0346  0.8847
   20CHTO  H141 8169   4.739   3.346  -0.099 -1.6505  0.1729  1.4447
   20CHTO  H142 8170   4.675   3.501  -0.040  0.3880  1.8814 -0.3396
   20CHTO   C79 8171   4.950   3.576  -0.196 -0.3010  0.2138  0.7273
   20CHTO  H151 8172   4.896   3.670  -0.209  1.2518  0.6685 -2.8655
   20CHTO   O52 8173   5.087   3.613  -0.166  0.4090  0.2262  1.3321
   20CHTO   C86 8174   5.173   3.518  -0.099  0.1947  0.8066 -0.5241
   20CHTO  H158 8175   5.203   3.446  -0.178  2.4406  0.8907  0.2021
   20CHTO   C90 8176   5.300   3.603  -0.072  0.0154 -0.6021 -0.3192
   20CHTO   O60 8177   5.302   3.688   0.044 -0.3590  0.4259 -0.4855
   20CHTO  H138 8178   5.390   3.712   0.068 -0.0103 -0.1718 -1.1443
   20CHTO   O50 8179   4.951   3.494  -0.313 -0.3492 -0.3236 -0.2963
   20CHTO   C73 8180   5.010   3.517  -0.438 -0.8743 -0.2461  0.1927
   20CHTO  H145 8181   5.116   3.542  -0.422 -0.6831  1.2204 -2.9420
   20CHTO   C74 8182   4.935   3.631  -0.515  0.9069  0.0401 -0.2105
   20CHTO  H146 8183   4.945   3.722  -0.454 -2.1445  0.6684 -0.5774
   20CHTO   O54 8184   5.012   3.658  -0.634  0.3099 -0.4398 -0.1410
   20CHTO  H133 8185   4.956   3.672  -0.708 -0.2413 -2.5112 -0.1544
   20CHTO   C75 8186   4.786   3.599  -0.547 -0.1111 -0.5362 -0.4929
   20CHTO  H147 8187   4.735   3.578  -0.452  2.7498 -2.5401  0.6752
   20CHTO   N13 8188   4.708   3.699  -0.617 -0.2633 -0.7328  0.3769
   20CHTO  H139 8189   4.605   3.671  -0.631 -0.9811  2.5905 -1.7818
   20CHTO  H140 8190   4.712   3.798  -0.572 -1.1507  0.1661 -1.4588
   20CHTO   C76 8191   4.778   3.458  -0.626  0.8631 -0.0762  0.4128
   20CHTO  H148 8192   4.802   3.465  -0.732 -3.6936  2.1452 -0.6039
   20CHTO   O49 8193   4.863   3.352  -0.556  0.3019 -0.2523 -0.1676
   20CHTO   C77 8194   4.999   3.382  -0.523 -0.3140 -0.1256 -0.2677
   20CHTO  H149 8195   5.065   3.381  -0.609  1.6757 -0.0780  1.2094
   20CHTO   C88 8196   5.064   3.264  -0.447  0.4328 -0.2496 -0.0254
   20CHTO   O58 8197   5.214   3.291  -0.420 -0.5616  0.2984  0.2689
   20CHTO  H136 8198   5.230   3.254  -0.336  0.0537 -3.3809 -1.3543
   20CHTO   O51 8199   4.613   3.384  -0.610  0.3264  0.4220  0.0480
   20CHTO   C78 8200   4.573   3.320  -0.478 -0.1709 -0.6444  0.2047
   20CHTO  H150 8201   4.646   3.347  -0.399 -1.0224  0.8050  0.5245
   20CHTO   C80 8202   4.575   3.166  -0.492  0.4534  0.5311  0.0817
   20CHTO  H152 8203   4.520   3.136  -0.584  2.2592 -0.9137 -0.5647
   20CHTO   O55 8204   4.708   3.125  -0.506 -0.6327  0.0893 -0.0365
   20CHTO  H134 8205   4.732   3.119  -0.597  1.5688 -0.4449  0.5380
   20CHTO   C84 8206   4.508   3.088  -0.373 -0.0306 -0.8413 -0.9253
   20CHTO  H156 8207   4.584   3.086  -0.295  0.6710  0.0682 -1.5717
   20CHTO   N15 8208   4.481   2.943  -0.413  0.3919  0.0044 -0.6381
   20CHTO  H143 8209   4.393   2.945  -0.473 -1.1570  1.1335  1.6266
   20CHTO  H144 8210   4.472   2.870  -0.336  2.7186 -0.0388 -0.3502
   20CHTO   C87 8211   4.381   3.168  -0.325 -0.3253 -0.0614 -0.3839
   20CHTO  H159 8212   4.296   3.147  -0.389  0.6036  0.0430 -1.6705
   20CHTO   O53 8213   4.419   3.316  -0.309  0.3940 -0.3959 -0.6824
   20CHTO   C82 8214   4.439   3.375  -0.437  0.0899  0.9212  0.1536
   20CHTO  H154 8215   4.353   3.353  -0.501  0.5603 -0.2236 -0.0987
   20CHTO   C89 8216   4.443   3.527  -0.410 -0.2184  0.6109  0.2351
   20CHTO   O59 8217   4.310   3.571  -0.382 -0.0659 -0.0399  0.1784
   20CHTO  H137 8218   4.318   3.640  -0.319  1.5530  0.5416 -0.6307
   20CHTO   O45 8219   4.332   3.124  -0.187  0.4800  0.3298 -0.3001
   20CHTO   C67 8220   4.403   3.172  -0.069  0.3145 -0.1067 -0.6381
   20CHTO  H124 8221   4.499   3.214  -0.102  0.2127  2.3194  1.9703
   20CHTO   C65 8222   4.324   3.287   0.002  0.1289  0.1088  0.2216
   20CHTO  H122 8223   4.245   3.307  -0.070  0.9210  2.8719  0.0249
   20CHTO   O44 8224   4.409   3.399   0.013  0.1042  0.3800 -0.5740
   20CHTO  H102 8225   4.461   3.406  -0.064  2.8272 -2.0793  0.9275
   20CHTO   C63 8226   4.244   3.222   0.119 -0.3101  0.0252  0.5647
   20CHTO  H120 8227   4.184   3.138   0.083 -3.4416  2.4500 -0.1457
   20CHTO   N11 8228   4.139   3.305   0.182  0.2115  0.0464 -0.7301
   20CHTO  H108 8229   4.070   3.250   0.243 -0.9778  1.2680 -0.9496
   20CHTO  H109 8230   4.099   3.372   0.109  0.8875  0.4398 -0.7392
   20CHTO   C61 8231   4.350   3.165   0.219  0.6437  0.1766  0.4591
   20CHTO  H118 8232   4.292   3.097   0.284  0.1877  1.1456  1.0826
   20CHTO   O40 8233   4.460   3.090   0.161  0.2733 -0.3956 -0.0542
   20CHTO   C68 8234   4.439   3.048   0.024  0.0635 -0.3120 -0.7271
   20CHTO  H125 8235   4.356   2.975   0.016 -1.1058  0.8707  0.3360
   20CHTO   C72 8236   4.563   2.977  -0.023 -0.3363  0.2013  0.5996
   20CHTO   O48 8237   4.681   3.048   0.009 -0.1310  0.0104  0.3612
   20CHTO  H105 8238   4.758   3.008  -0.025 -1.2925 -2.0388  0.0273
   20CHTO   O38 8239   4.414   3.276   0.287  0.1567  0.6850 -0.2455
   20CHTO   C55 8240   4.446   3.248   0.429  0.0654 -0.5728 -0.3461
   20CHTO  H112 8241   4.446   3.140   0.448 -0.4441 -0.5741 -0.3388
   20CHTO   C56 8242   4.350   3.331   0.521 -0.3000 -0.7098  0.5996
   20CHTO  H113 8243   4.339   3.420   0.457 -1.1255 -1.7146 -0.6752
   20CHTO   O42 8244   4.220   3.274   0.514  0.2295 -0.3066  0.0824
   20CHTO  H100 8245   4.225   3.188   0.549  1.3803 -0.3214 -0.0977
   20CHTO   C57 8246   4.398   3.360   0.671 -0.0492 -0.0334 -0.2431
   20CHTO  H114 8247   4.363   3.276   0.731 -1.3022 -1.1519 -2.4692
   20CHTO   N10 8248   4.327   3.476   0.739  0.0301 -0.3306 -0.1789
   20CHTO  H106 8249   4.338   3.461   0.845 -1.2404  0.1720  0.0366
   20CHTO  H107 8250   4.371   3.569   0.709 -0.0491 -1.2782 -3.4957
   20CHTO   C58 8251   4.553   3.370   0.687 -0.2331  0.0235 -0.2416
   20CHTO  H115 8252   4.584   3.476   0.674 -1.8366  0.7728  1.7213
   20CHTO   O37 8253   4.618   3.278   0.600  0.3103  0.2073 -0.6131
   20CHTO   C59 8254   4.593   3.299   0.461 -0.7420  0.6603  0.4644
   20CHTO  H116 8255   4.597   3.405   0.436 -1.2725  0.6492  0.3191
   20CHTO   C70 8256   4.708   3.234   0.384  0.0279 -0.3584 -0.7115
   20CHTO   O46 8257   4.842   3.269   0.414  0.0638  0.1579 -1.3163
   20CHTO  H103 8258   4.842   3.271   0.508  0.1728 -2.5746 -1.2224
   20CHTO   O39 8259   4.589   3.336   0.828  0.3701  0.3877  0.3900
   20CHTO   C60 8260   4.732   3.320   0.858  0.2996  0.1093 -0.7689
   20CHTO  H117 8261   4.789   3.332   0.766 -0.4043  2.4010 -0.9487
   20CHTO   C62 8262   4.787   3.429   0.958  0.4333 -0.3237  0.5990
   20CHTO  H119 8263   4.772   3.519   0.896  0.5719 -0.2003  0.7442
   20CHTO   O43 8264   4.708   3.430   1.082 -0.0560 -0.7283 -0.2133
   20CHTO  H101 8265   4.723   3.363   1.146 -2.9092 -0.2960  0.9735
   20CHTO   C66 8266   4.942   3.406   0.983 -0.2162 -0.9020  0.2688
   20CHTO  H123 8267   4.992   3.398   0.887  2.2876 -0.4302  1.5003
   20CHTO   N12 8268   5.005   3.520   1.063  0.0149 -0.1257  0.3556
   20CHTO  H110 8269   5.049   3.479   1.153 -0.9039  0.1158  0.9140
   20CHTO  H111 8270   5.071   3.580   1.003  0.2532 -1.0503 -0.3268
   20CHTO   C69 8271   4.961   3.272   1.054  0.1027  0.5840 -0.5635
   20CHTO  H126 8272   4.921   3.274   1.158  1.0217  0.7870 -0.2092
   20CHTO   O41 8273   4.906   3.162   0.970  0.0931 -0.3125 -0.4297
   20CHTO   C64 8274   4.757   3.175   0.904  0.8148 -0.4070  0.3652
   20CHTO  H121 8275   4.684   3.158   0.986 -0.5967 -1.9490 -1.1843
   20CHTO   C71 8276   4.731   3.054   0.801  0.0744  0.1192  0.0858
   20CHTO   O47 8277   4.853   3.026   0.730  0.3599 -0.3254 -0.5008
   20CHTO  H104 8278   4.920   2.986   0.782  1.6593  0.6323 -1.4063
   20CHTO   O34 8279   5.105   3.241   1.080  0.2209 -0.6267  0.1284
   20CHTO   C49 8280   5.147   3.095   1.145  0.7317 -0.2683  0.1209
   20CHTO   H91 8281   5.110   3.022   1.073 -1.7415  0.9661  0.0953
   20CHTO   C47 8282   5.076   3.072   1.287 -0.3492  0.3924  0.3944
   20CHTO   H89 8283   4.971   3.058   1.255 -0.4260  2.1755 -0.1890
   20CHTO   O33 8284   5.079   3.186   1.372 -1.1881  0.0099 -0.3723
   20CHTO   H70 8285   5.100   3.256   1.312  0.5008 -0.0533  0.1088
   20CHTO   C45 8286   5.147   2.940   1.359  0.3326  0.3620 -0.1048
   20CHTO   H87 8287   5.217   2.974   1.437 -1.0496  3.4001 -0.1342
   20CHTO    N8 8288   5.045   2.861   1.429  0.0093  0.3245 -0.2538
   20CHTO   H75 8289   5.041   2.878   1.536 -0.8573  0.9336 -0.3698
   20CHTO   H76 8290   4.953   2.865   1.372 -0.0669 -0.8820 -0.2228
   20CHTO   C43 8291   5.234   2.850   1.260  0.2770 -0.2638 -0.5508
   20CHTO   H85 8292   5.277   2.770   1.320  2.8551 -0.8628 -3.0930
   20CHTO   O29 8293   5.333   2.923   1.193 -0.6249  0.1991  0.1013
   20CHTO   C50 8294   5.300   3.063   1.163  0.2308  0.4877  0.3714
   20CHTO   H92 8295   5.338   3.134   1.238 -0.5993  0.6014  0.6869
   20CHTO   C54 8296   5.381   3.119   1.041  0.4594  0.1341 -0.1532
   20CHTO   O36 8297   5.381   3.031   0.925  0.3884 -0.4144  0.2045
   20CHTO   H72 8298   5.466   3.009   0.891  1.1479  1.8673  0.5028
   20CHTO   O27 8299   5.168   2.776   1.160  0.1178 -0.2963  0.1498
   20CHTO   C37 8300   5.071   2.690   1.106  0.5072  0.2510 -0.0045
   20CHTO   H79 8301   4.984   2.679   1.172 -2.1533  1.2115 -3.2069
   20CHTO   C38 8302   5.003   2.750   0.980  0.0575 -0.3609  0.5954
   20CHTO   H80 8303   5.084   2.792   0.919 -1.0050 -1.9898 -2.0450
   20CHTO   O31 8304   4.927   2.862   1.032 -0.7882  0.0464 -0.0385
   20CHTO   H68 8305   4.871   2.897   0.966 -0.3139  1.1646  0.1229
   20CHTO   C39 8306   4.910   2.646   0.903 -0.4371  0.1092 -0.1928
   20CHTO   H81 8307   4.815   2.648   0.956 -1.3030 -0.3626 -1.6944
   20CHTO    N7 8308   4.890   2.701   0.767  0.4263  0.5410  0.1191
   20CHTO   H73 8309   4.847   2.627   0.701  0.2813  2.1468 -1.6480
   20CHTO   H74 8310   4.850   2.801   0.775 -2.4967 -0.5930  0.3898
   20CHTO   C40 8311   4.984   2.507   0.892 -0.6704 -0.0969  0.0778
   20CHTO   H82 8312   5.071   2.509   0.827 -0.6518 -3.0271 -0.0550
   20CHTO   O26 8313   5.018   2.470   1.024 -0.1961  0.2932  0.5210
   20CHTO   C41 8314   5.133   2.549   1.085  0.5299  0.1483 -0.6962
   20CHTO   H83 8315   5.211   2.558   1.008  1.3622 -4.4969 -0.5393
   20CHTO   C52 8316   5.181   2.473   1.213  0.0071  0.0903  0.0826
   20CHTO   O35 8317   5.255   2.361   1.194  0.3055  0.1657 -0.2434
   20CHTO   H71 8318   5.236   2.304   1.122  1.4269 -0.1800 -0.2748
   20CHTO   O28 8319   4.906   2.392   0.842 -0.8607  0.0036 -0.0608
   20CHTO   C42 8320   4.970   2.272   0.784  0.6525  0.2143 -0.5941
   20CHTO   H84 8321   4.885   2.210   0.757  0.7735 -0.0295 -0.4071
   20CHTO   C44 8322   5.065   2.188   0.887 -0.2569  0.0194  0.1752
   20CHTO   H86 8323   5.134   2.257   0.935  1.0391 -0.8578 -0.3930
   20CHTO   O32 8324   4.982   2.145   0.993 -0.3564  0.0707  0.6430
   20CHTO   H69 8325   4.946   2.211   1.049 -0.5190  1.9098 -1.5565
   20CHTO   C48 8326   5.150   2.072   0.812 -0.3406 -0.1734  0.0372
   20CHTO   H90 8327   5.088   1.993   0.772 -0.7807 -0.1572  0.6806
   20CHTO    N9 8328   5.253   2.004   0.906 -0.1905  0.0277 -0.6957
   20CHTO   H77 8329   5.263   2.041   1.007  1.2270  3.4696 -2.0424
   20CHTO   H78 8330   5.238   1.897   0.913  2.2843 -0.4243 -1.9177
   20CHTO   C51 8331   5.216   2.140   0.689  0.1701  0.0924 -0.3751
   20CHTO   H93 8332   5.277   2.221   0.727  0.1584  0.1684 -0.5183
   20CHTO   O30 8333   5.115   2.182   0.602  0.0469 -0.3394  0.7747
   20CHTO   C46 8334   5.046   2.302   0.649  0.8523  0.0126 -0.2523
   20CHTO   H88 8335   5.118   2.379   0.674  0.3609  0.4106 -0.0389
   20CHTO   C53 8336   4.950   2.347   0.544  0.2578  0.2531 -0.0781
   20CHTO   O72 8337   4.990   2.446   0.456 -0.2538  0.1902 -0.5873
   20CHTO  H199 8338   4.986   2.531   0.495  0.6531 -0.8568  1.9531
   20CHTO   O22 8339   5.292   2.044   0.608 -0.0884  0.0240 -0.0375
   20CHTO   C31 8340   5.402   2.099   0.527 -0.3121 -0.1354 -0.4325
   20CHTO   H59 8341   5.430   2.022   0.453  0.3842 -0.1274 -0.1731
   20CHTO   C29 8342   5.371   2.230   0.441  0.4634 -0.2260 -0.2687
   20CHTO   H57 8343   5.335   2.303   0.515 -0.7211  0.4626 -1.5068
   20CHTO   O21 8344   5.256   2.196   0.356 -0.1973  0.6918 -0.1686
   20CHTO   H37 8345   5.215   2.274   0.322  1.0809  0.8090 -1.5253
   20CHTO   C27 8346   5.490   2.302   0.367 -0.2404  0.1538 -0.0852
   20CHTO   H55 8347   5.514   2.248   0.275  0.7157  1.5147 -0.6562
   20CHTO    N5 8348   5.457   2.443   0.326  0.2322 -0.3991  0.0721
   20CHTO   H43 8349   5.412   2.493   0.411 -0.8232 -2.9235  1.0485
   20CHTO   H44 8350   5.377   2.440   0.254 -1.1740  1.0080  1.5397
   20CHTO   C25 8351   5.617   2.293   0.461 -0.0265 -0.2215  0.4814
   20CHTO   H53 8352   5.603   2.368   0.540  0.6955  0.8202 -0.3692
   20CHTO   O17 8353   5.632   2.161   0.522 -0.3289  0.0103  0.1438
   20CHTO   C32 8354   5.529   2.127   0.608 -0.0481  0.3223  0.6443
   20CHTO   H60 8355   5.508   2.212   0.673 -1.4824  0.5857 -0.1381
   20CHTO   C36 8356   5.589   2.017   0.700 -0.0895 -0.4241  0.6462
   20CHTO   O25 8357   5.644   1.905   0.623 -0.0347 -0.8196 -0.4217
   20CHTO   H40 8358   5.587   1.852   0.570  1.1558 -0.4520 -2.1056
   20CHTO   O15 8359   5.748   2.338   0.386  0.6916  0.1236  0.2570
   20CHTO   C19 8360   5.861   2.421   0.425  0.5971 -0.4195 -0.0006
   20CHTO   H47 8361   5.825   2.524   0.417  1.5069 -0.2118 -1.6388
   20CHTO   C20 8362   5.923   2.381   0.565  0.2463  0.0113 -0.0190
   20CHTO   H48 8363   5.938   2.272   0.577  0.7005  0.3428  2.8481
   20CHTO   O19 8364   5.818   2.418   0.656  0.2938  0.3601  0.2066
   20CHTO   H35 8365   5.742   2.365   0.643 -0.2628  0.7797  1.6077
   20CHTO   C21 8366   6.052   2.452   0.603  0.1198  0.3100  0.6560
   20CHTO   H49 8367   6.027   2.557   0.617  1.8931  0.6424  1.4013
   20CHTO    N4 8368   6.131   2.417   0.734  0.5200  0.0202 -0.5518
   20CHTO   H41 8369   6.144   2.500   0.803 -3.6107 -1.3605  2.0474
   20CHTO   H42 8370   6.224   2.363   0.720 -0.9922 -2.2603 -2.1057
   20CHTO   C22 8371   6.151   2.441   0.485 -0.7295 -0.4854  0.6074
   20CHTO   H50 8372   6.195   2.341   0.478 -0.5377 -0.2128 -3.4086
   20CHTO   O14 8373   6.088   2.488   0.370  0.2276  0.4164  0.1823
   20CHTO   C23 8374   5.979   2.407   0.318  0.5384 -0.0638  1.2418
   20CHTO   H51 8375   6.015   2.304   0.308 -1.0054 -0.5728  0.8032
   20CHTO   C34 8376   5.930   2.463   0.185  0.1228  0.2034 -0.1418
   20CHTO   O23 8377   6.030   2.486   0.086  0.8456  0.0780  0.6319
   20CHTO   H38 8378   6.011   2.568   0.044  1.1067 -0.9854 -1.6466
   20CHTO   O16 8379   6.254   2.544   0.494 -0.5743  0.0582  0.5435
   20CHTO   C24 8380   6.386   2.508   0.471  0.3338 -0.1666 -0.1723
   20CHTO   H52 8381   6.394   2.402   0.447 -3.5227 -1.2187  2.6410
   20CHTO   C26 8382   6.470   2.533   0.601 -0.2698 -1.0743 -0.6268
   20CHTO   H54 8383   6.410   2.597   0.669  0.1582 -1.3079 -0.0245
   20CHTO   O20 8384   6.478   2.410   0.667 -0.2612 -0.1759 -0.3174
   20CHTO   H36 8385   6.397   2.390   0.709 -0.1784 -1.5757 -0.7896
   20CHTO   C30 8386   6.614   2.595   0.577  0.0157  0.3054 -0.5059
   20CHTO   H58 8387   6.681   2.564   0.659 -1.3486 -0.5227  0.3172
   20CHTO    N6 8388   6.624   2.743   0.592 -0.3521  0.1202 -0.6414
   20CHTO   H45 8389   6.549   2.782   0.525  1.0365  0.6083 -1.9557
   20CHTO   H46 8390   6.721   2.782   0.565 -0.7082  0.8709 -0.8546
   20CHTO   C33 8391   6.670   2.541   0.441  0.6353 -0.1811 -0.3236
   20CHTO   H61 8392   6.769   2.581   0.417  2.3509 -3.1333  1.5568
   20CHTO   O18 8393   6.584   2.566   0.322 -0.3967  0.9190 -0.1976
   20CHTO   C28 8394   6.446   2.601   0.354 -0.0101  0.3343 -0.2846
   20CHTO   H56 8395   6.438   2.707   0.377 -0.4062  0.2054  0.1835
   20CHTO   C35 8396   6.364   2.580   0.227 -0.2237 -0.4385  0.1783
   20CHTO   O24 8397   6.419   2.651   0.120 -0.5398 -0.0977 -0.0875
   20CHTO   H39 8398   6.351   2.681   0.063  1.0082  2.9534 -0.4509
   20CHTO    O9 8399   6.692   2.405   0.459 -0.7017 -0.0620 -0.0348
   20CHTO   C13 8400   6.690   2.296   0.329 -0.5516  0.2450  0.0207
   20CHTO   H26 8401   6.723   2.352   0.239  2.9762  2.1880  2.3860
   20CHTO   C11 8402   6.543   2.236   0.313  0.4366 -0.5443  0.1126
   20CHTO   H24 8403   6.481   2.322   0.286  1.8129 -0.0533 -1.5888
   20CHTO    O8 8404   6.507   2.188   0.440 -0.4088 -0.0016 -0.2397
   20CHTO    H3 8405   6.435   2.128   0.436 -0.1369 -0.5178  2.0473
   20CHTO    C9 8406   6.545   2.129   0.194 -0.3969 -0.0486 -0.2352
   20CHTO   H22 8407   6.547   2.185   0.099  1.2940 -1.0863 -0.8490
   20CHTO    N2 8408   6.423   2.052   0.188 -0.1040 -0.6911  0.2110
   20CHTO   H10 8409   6.408   2.012   0.089 -2.0662 -0.2736  0.3176
   20CHTO   H11 8410   6.341   2.114   0.221 -1.5517 -1.6452 -1.5164
   20CHTO    C7 8411   6.680   2.045   0.196  0.3110 -0.3910  0.4750
   20CHTO   H20 8412   6.743   2.097   0.121 -0.7073  1.4029  0.8236
   20CHTO    O4 8413   6.735   2.037   0.330 -0.0997  0.2961  0.1397
   20CHTO   C14 8414   6.789   2.172   0.351  0.2028 -0.2830 -0.0404
   20CHTO   H27 8415   6.874   2.188   0.282 -1.0973  0.3040 -1.5395
   20CHTO   C18 8416   6.844   2.170   0.489  0.4594 -0.0070 -0.0079
   20CHTO   O13 8417   6.977   2.228   0.488 -0.1002  0.2434  0.3462
   20CHTO    H7 8418   7.014   2.223   0.574  1.4802  0.4706 -0.3240
   20CHTO    O2 8419   6.674   1.875   0.111 -0.2982  0.1023 -0.5634
   20CHTO    C1 8420   6.674   1.758   0.196  0.0298 -0.2114 -0.2315
   20CHTO   H14 8421   6.623   1.782   0.291 -0.6865 -1.7992 -0.1951
   20CHTO    C2 8422   6.827   1.708   0.222  0.4733  0.0045  0.2656
   20CHTO   H15 8423   6.871   1.707   0.121 -1.4090  0.1710 -0.5711
   20CHTO    O6 8424   6.902   1.798   0.311  0.2738  0.4235  0.3710
   20CHTO    H1 8425   6.989   1.764   0.302 -0.1022  0.0203 -2.2466
   20CHTO    C3 8426   6.808   1.559   0.284 -0.2495 -0.3145 -0.0032
   20CHTO   H16 8427   6.767   1.548   0.386  0.3808 -1.3812  0.1432
   20CHTO    N1 8428   6.947   1.498   0.291  0.3621  0.2983 -0.4254
   20CHTO    H8 8429   6.972   1.459   0.193  2.5834 -0.2064  0.3198
   20CHTO    H9 8430   6.951   1.414   0.359  0.8345  1.8276  1.4500
   20CHTO    C4 8431   6.711   1.465   0.207 -0.8249 -0.6034 -0.0881
   20CHTO   H17 8432   6.755   1.441   0.111 -1.0998 -1.6972  0.0570
   20CHTO    O1 8433   6.585   1.533   0.201 -0.6034 -0.3067  0.3563
   20CHTO    C5 8434   6.591   1.654   0.123 -0.1002 -0.2193 -0.2075
   20CHTO   H18 8435   6.637   1.629   0.027  0.9364 -0.5113  0.3627
   20CHTO   C16 8436   6.440   1.709   0.098 -0.2020  0.4571  0.4716
   20CHTO   O11 8437   6.428   1.793  -0.023 -0.1089  0.0988  0.4135
   20CHTO    H5 8438   6.344   1.835  -0.013 -0.7825 -1.4984  1.6022
   20CHTO    O3 8439   6.689   1.345   0.285 -0.2803 -0.6527 -0.3695
   20CHTO    C6 8440   6.629   1.232   0.212 -0.3608  0.5188 -0.5087
   20CHTO   H19 8441   6.593   1.255   0.111  0.6606 -0.0227 -1.0137
   20CHTO    C8 8442   6.742   1.122   0.202 -0.3172  0.1438  0.8039
   20CHTO   H21 8443   6.770   1.102   0.305  0.4587  2.4266  1.0660
   20CHTO    O7 8444   6.846   1.178   0.125 -0.5926  0.5547  0.8297
   20CHTO    H2 8445   6.884   1.256   0.162 -1.0909  1.0247  0.3702
   20CHTO   C12 8446   6.689   0.993   0.137 -1.0140  0.3057 -0.0721
   20CHTO   H25 8447   6.664   0.999   0.029  1.4001  0.0642 -0.6751
   20CHTO    N3 8448   6.786   0.884   0.136 -1.4999 -0.1459  0.0587
   20CHTO   H12 8449   6.791   0.835   0.232  0.0685 -1.0031 -0.4430
   20CHTO   H13 8450   6.781   0.813   0.055  1.1928  1.1655 -1.3214
   20CHTO   C15 8451   6.557   0.948   0.209  0.3876 -0.1072  0.1154
   20CHTO   H28 8452   6.575   0.908   0.309 -1.1674  1.7887  1.1989
   20CHTO   O10 8453   6.473   0.840   0.131  0.5521 -0.4193  0.3793
   20CHTO    H4 8454   6.483   0.763   0.184 -2.5611  0.5998  2.5370
   20CHTO    O5 8455   6.463   1.052   0.221  0.1651  0.2492 -0.5747
   20CHTO   C10 8456   6.505   1.170   0.293  0.5882 -0.0995  0.2276
   20CHTO   H23 8457   6.532   1.135   0.392  2.3919 -0.1036 -0.2358
   20CHTO   C17 8458   6.382   1.263   0.288  0.1923  0.1750  0.5850
   20CHTO   O12 8459   6.283   1.218   0.372  0.1249 -0.6496  0.0832
   20CHTO    H6 8460   6.306   1.233   0.462  1.6319 -0.5212 -0.2964
   21GLOH   H03 8461   2.279   1.197   0.685 -0.7990 -2.7621  1.0110
   21GLOH    O1 8462   2.191   1.238   0.672  0.2014 -0.7258  0.4347
   21GLOH    C1 8463   2.133   1.186   0.547  0.3921 -0.1139  0.3215
   21GLOH   H02 8464   2.186   1.218   0.457 -0.0282  0.0813  0.1407
   21GLOH   H08 8465   2.028   1.215   0.546 -0.0418 -1.6284  0.6400
   21GLOH    C2 8466   2.133   1.033   0.543 -0.3125 -1.0442 -0.2716
   21GLOH   H04 8467   2.242   1.021   0.543 -0.2989 -0.9825 -1.7229
   21GLOH    O2 8468   2.071   0.967   0.658  0.1988 -0.1030 -0.0451
   21GLOH   H05 8469   2.124   0.989   0.737  1.3804  0.2819 -0.9379
   21GLOH    C3 8470   2.070   0.992   0.407 -0.3773 -1.0272  0.2271
   21GLOH   H06 8471   1.979   1.050   0.392  0.9055  0.6903 -1.0675
   21GLOH   H07 8472   2.051   0.885   0.409 -1.8419 -0.7674  0.4587
   21GLOH    O3 8473   2.176   1.021   0.307 -0.1386 -0.1782 -0.4510
   21GLOH   H01 8474   2.239   0.948   0.291  0.9919  0.9071 -1.0550
   22GLOH   H03 8475   3.004  10.331   0.866 -0.2063  0.0345  0.2069
   22GLOH    O1 8476   2.943  10.266   0.904  0.1247 -0.5491 -0.2636
   22GLOH    C1 8477   2.827  10.325   0.981 -0.3456  0.1417 -0.2261
   22GLOH   H02 8478   2.756  10.246   1.006 -1.0853  0.5002 -1.1460
   22GLOH   H08 8479   2.773  10.394   0.917 -2.0785 -0.6072  0.4105
   22GLOH    C2 8480   2.877  10.404   1.105  0.2483  0.4167  0.7545
   22GLOH   H04 8481   2.964  10.466   1.079  0.0075  0.4431  0.0210
   22GLOH    O2 8482   2.774  10.498   1.144 -0.0100  0.4961  0.4952
   22GLOH   H05 8483   2.699  10.437   1.157  1.6024 -1.5653  0.4295
   22GLOH    C3 8484   2.904  10.299   1.218  0.2228 -0.1128  0.0459
   22GLOH   H06 8485   2.970  10.337   1.296  2.0646 -1.9726 -0.5939
   22GLOH   H07 8486   2.959  10.222   1.164  3.0409  0.6520  1.7564
   22GLOH    O3 8487   2.794  10.228   1.274 -0.1644 -0.1771  0.0861
   22GLOH   H01 8488   2.815  10.190   1.361  0.0136 -0.1040  0.0750
   23GLOH   H03 8489   3.347  10.361   1.070 -1.1095 -0.2942 -2.2365
   23GLOH    O1 8490   3.376  10.272   1.098 -0.0516  0.6489 -0.2644
   23GLOH    C1 8491   3.352  10.191   0.983 -0.4538 -0.6802 -0.0795
   23GLOH   H02 8492   3.353  10.243   0.886  2.2969 -0.7104 -0.1338
   23GLOH   H08 8493   3.250  10.157   0.996 -0.9066 -0.2838 -2.3774
   23GLOH    C2 8494   3.434  10.061   0.979 -0.2801  1.1181 -0.7979
   23GLOH   H04 8495   3.363   9.984   1.011  2.4127 -0.5164  1.4031
   23GLOH    O2 8496   3.469  10.029   0.843 -0.1530  1.0493  0.1724
   23GLOH   H05 8497   3.544  10.089   0.829 -0.0156  0.5837 -1.1622
   23GLOH    C3 8498   3.549  10.053   1.079 -0.4202  0.3761  0.3312
   23GLOH   H06 8499   3.517  10.054   1.183  0.7039  1.2632  0.6755
   23GLOH   H07 8500   3.615  10.139   1.069  0.7595 -0.3372  1.7844
   23GLOH    O3 8501   3.630   9.938   1.050 -0.2090  0.5171  0.0266
   23GLOH   H01 8502   3.573   9.860   1.038  0.1424  0.5511 -1.9803
   24GLOH   H03 8503   4.059   1.135  -0.134 -1.7381  2.0752 -3.1212
   24GLOH    O1 8504   4.008   1.055  -0.155  0.2306 -0.0600 -0.2578
   24GLOH    C1 8505   4.090   0.944  -0.116 -0.0640 -0.1525 -0.5498
   24GLOH   H02 8506   4.161   0.926  -0.197  3.9285  1.3694  2.4975
   24GLOH   H08 8507   4.024   0.857  -0.117  0.5606 -0.6624  1.2473
   24GLOH    C2 8508   4.159   0.962   0.016 -0.5349 -0.3445  0.7174
   24GLOH   H04 8509   4.216   0.870   0.035  0.0540 -0.4660 -1.5289
   24GLOH    O2 8510   4.248   1.077   0.007 -0.1693 -0.6634 -0.3173
   24GLOH   H05 8511   4.303   1.078   0.087 -1.3014 -2.5871  0.5261
   24GLOH    C3 8512   4.050   0.985   0.120  0.1697  0.6869  0.1945
   24GLOH   H06 8513   3.994   1.077   0.108 -1.4291 -0.2046  0.6682
   24GLOH   H07 8514   4.098   1.015   0.213  2.6758  0.7027 -1.0620
   24GLOH    O3 8515   3.966   0.874   0.136  0.7075 -0.0376  0.4759
   24GLOH   H01 8516   4.010   0.792   0.164  0.6259  0.1817  1.2461
   25GLOH   H03 8517   3.742   2.483   2.449 -0.7957  1.2541 -0.5565
   25GLOH    O1 8518   3.667   2.433   2.410 -0.0298  0.0563 -0.5203
   25GLOH    C1 8519   3.572   2.527   2.372  0.5320 -0.1551  0.1869
   25GLOH   H02 8520   3.620   2.583   2.292  0.5617  0.2003  0.4509
   25GLOH   H08 8521   3.558   2.602   2.450  0.3611 -0.8839  0.8600
   25GLOH    C2 8522   3.439   2.475   2.317  0.0522  0.0441  0.0024
   25GLOH   H04 8523   3.454   2.387   2.253 -1.3763  2.2323 -3.4611
   25GLOH    O2 8524   3.352   2.430   2.422 -0.4582  0.1376  0.3841
   25GLOH   H05 8525   3.265   2.398   2.390  0.3329 -0.2660 -1.4182
   25GLOH    C3 8526   3.378   2.579   2.226 -0.2192 -0.1155 -0.6997
   25GLOH   H06 8527   3.353   2.669   2.282  0.7587  0.2835 -0.8842
   25GLOH   H07 8528   3.286   2.537   2.186 -0.2595 -0.9480  0.2492
   25GLOH    O3 8529   3.460   2.614   2.113  0.3615 -0.2271 -0.7738
   25GLOH   H01 8530   3.429   2.582   2.027  1.0966 -0.7120 -0.8588
   26GLOH   H03 8531   4.419   2.313  -0.095  0.5273 -1.1116 -2.7690
   26GLOH    O1 8532   4.467   2.238  -0.056  0.0809  0.0125  0.0933
   26GLOH    C1 8533   4.542   2.277   0.062  0.5173 -0.3392 -0.3630
   26GLOH   H02 8534   4.571   2.191   0.123 -1.5245 -1.1928 -0.5577
   26GLOH   H08 8535   4.490   2.344   0.130 -0.9912 -3.0062  1.2091
   26GLOH    C2 8536   4.668   2.357   0.027  0.7172 -0.0906  0.5085
   26GLOH   H04 8537   4.625   2.442  -0.028 -0.0890 -2.4651 -2.6800
   26GLOH    O2 8538   4.729   2.403   0.148  0.6111  0.3762 -0.5307
   26GLOH   H05 8539   4.727   2.500   0.148 -3.5857  0.3887 -0.4898
   26GLOH    C3 8540   4.756   2.269  -0.060 -0.2200  0.3200  0.5043
   26GLOH   H06 8541   4.822   2.340  -0.109 -2.0156  1.3235 -0.5067
   26GLOH   H07 8542   4.698   2.228  -0.142 -0.1010 -1.2740  1.1810
   26GLOH    O3 8543   4.807   2.156   0.016  0.7764  0.6015  0.6265
   26GLOH   H01 8544   4.807   2.170   0.112 -0.2629 -2.6386  1.1428
   27GLOH   H03 8545   3.505   2.080   0.772 -3.1230  1.8594 -2.1864
   27GLOH    O1 8546   3.557   2.090   0.691  0.1746 -0.4577 -0.4839
   27GLOH    C1 8547   3.552   1.966   0.613 -0.4351 -0.4223  0.1772
   27GLOH   H02 8548   3.639   1.970   0.546  1.3964  0.5218  2.5401
   27GLOH   H08 8549   3.466   1.978   0.548  1.0906 -1.3442 -2.0999
   27GLOH    C2 8550   3.559   1.827   0.688 -0.2453 -0.2758  0.2338
   27GLOH   H04 8551   3.492   1.845   0.773  2.9510  0.5333  2.6719
   27GLOH    O2 8552   3.519   1.726   0.594  0.3381  0.5687  0.3270
   27GLOH   H05 8553   3.567   1.734   0.510 -0.2218 -0.8819 -0.1465
   27GLOH    C3 8554   3.697   1.791   0.737  0.7044 -0.1522 -0.1944
   27GLOH   H06 8555   3.759   1.797   0.648  1.6210 -0.7135  0.4021
   27GLOH   H07 8556   3.695   1.685   0.761 -1.3881  0.4815  2.7169
   27GLOH    O3 8557   3.745   1.876   0.844 -0.2400  0.6888 -0.4388
   27GLOH   H01 8558   3.688   1.863   0.922 -2.1536  0.8515 -1.7561
   28GLOH   H03 8559   4.808   1.933   0.660 -0.6287 -0.4157 -0.3545
   28GLOH    O1 8560   4.754   1.905   0.736 -0.5883 -0.0971 -0.2074
   28GLOH    C1 8561   4.740   1.762   0.758 -0.1164 -0.3239 -0.2683
   28GLOH   H02 8562   4.833   1.710   0.739 -1.6346 -3.4836  0.6487
   28GLOH   H08 8563   4.672   1.714   0.688 -1.3403  0.3480  0.4338
   28GLOH    C2 8564   4.694   1.727   0.898 -0.2476 -0.0081  0.7965
   28GLOH   H04 8565   4.584   1.724   0.894 -0.2488  1.5403 -0.8197
   28GLOH    O2 8566   4.749   1.589   0.920 -0.4834  0.0169  0.1031
   28GLOH   H05 8567   4.742   1.573   1.015  2.2592 -1.6140  0.0888
   28GLOH    C3 8568   4.724   1.829   1.011 -0.5149  0.2350  0.0679
   28GLOH   H06 8569   4.833   1.836   1.006 -0.6355  0.7105 -2.6873
   28GLOH   H07 8570   4.695   1.796   1.111 -0.5581 -2.1295 -0.6894
   28GLOH    O3 8571   4.669   1.959   0.987 -0.1451 -0.0497  1.2074
   28GLOH   H01 8572   4.714   1.985   0.904 -2.7301  0.8309  0.0298
   29GLOH   H03 8573   4.541   1.623   1.353  0.7631 -0.6450 -0.6333
   29GLOH    O1 8574   4.448   1.616   1.324  0.3663 -0.2745  0.5388
   29GLOH    C1 8575   4.435   1.699   1.204  0.7829 -0.1739  0.1895
   29GLOH   H02 8576   4.348   1.678   1.141  0.2506  0.4737  0.7048
   29GLOH   H08 8577   4.521   1.676   1.141  0.8933 -1.3697  0.7481
   29GLOH    C2 8578   4.426   1.850   1.233  0.6816 -0.4144 -0.6605
   29GLOH   H04 8579   4.508   1.888   1.296  0.3439  0.1267 -0.5430
   29GLOH    O2 8580   4.444   1.926   1.110 -0.3130  0.2947  0.1114
   29GLOH   H05 8581   4.538   1.930   1.087 -0.5682 -0.2334 -1.0301
   29GLOH    C3 8582   4.294   1.894   1.293  0.1042  0.2975 -1.3524
   29GLOH   H06 8583   4.216   1.877   1.219 -1.7713  2.7604 -0.0100
   29GLOH   H07 8584   4.296   2.001   1.315  1.4865 -0.5940  3.5383
   29GLOH    O3 8585   4.269   1.832   1.422  0.0010  0.2945  0.0558
   29GLOH   H01 8586   4.232   1.742   1.406  1.5922 -0.3473 -0.0948
   30GLOH   H03 8587   3.748  10.490   1.443 -1.8467  1.1114  1.6472
   30GLOH    O1 8588   3.800  10.569   1.466 -0.2404  0.4362  0.3841
   30GLOH    C1 8589   3.861  10.606   1.339  0.4274 -0.3338 -0.1290
   30GLOH   H02 8590   3.969  10.588   1.330  0.2663 -0.1198 -2.7304
   30GLOH   H08 8591   3.858  10.714   1.343  2.0750 -0.2528 -0.7403
   30GLOH    C2 8592   3.799  10.545   1.210 -0.1281 -0.0573  0.1594
   30GLOH   H04 8593   3.865  10.566   1.124  0.2216 -2.7955 -0.3201
   30GLOH    O2 8594   3.806  10.397   1.208 -0.3563  0.0231 -0.0206
   30GLOH   H05 8595   3.731  10.374   1.265 -0.7304  0.9838 -0.1063
   30GLOH    C3 8596   3.653  10.597   1.177  0.0451 -0.2666  0.0809
   30GLOH   H06 8597   3.580  10.564   1.250 -1.1039 -0.2884 -1.0512
   30GLOH   H07 8598   3.616  10.547   1.087 -0.5329 -1.4761  0.9948
   30GLOH    O3 8599   3.654  10.740   1.163 -0.0376  0.1270 -0.7705
   30GLOH   H01 8600   3.593  10.767   1.092 -1.2616  0.4184  0.3727
   31GLOH   H03 8601   4.220   2.960   1.170 -2.0257 -2.4937 -3.1472
   31GLOH    O1 8602   4.238   3.032   1.107  0.0260  0.0679  0.1792
   31GLOH    C1 8603   4.243   2.977   0.973  0.1677 -0.8618 -0.6553
   31GLOH   H02 8604   4.224   3.060   0.905  0.9569 -0.1196  0.0238
   31GLOH   H08 8605   4.169   2.897   0.961 -1.2735  0.0336  1.7455
   31GLOH    C2 8606   4.389   2.931   0.935 -0.0179  0.7280 -0.5144
   31GLOH   H04 8607   4.455   3.017   0.950 -2.3025  2.1955  1.5621
   31GLOH    O2 8608   4.435   2.828   1.026  0.1352  0.0814  0.2534
   31GLOH   H05 8609   4.375   2.752   1.024 -0.6738  0.6793  1.2272
   31GLOH    C3 8610   4.388   2.870   0.791 -0.0764 -0.2626 -0.4166
   31GLOH   H06 8611   4.315   2.789   0.789 -1.4901  0.9904 -0.8917
   31GLOH   H07 8612   4.486   2.823   0.775 -0.1291 -0.7517  0.6456
   31GLOH    O3 8613   4.350   2.969   0.693 -0.1412  0.8396  0.3793
   31GLOH   H01 8614   4.254   2.976   0.680 -0.3361  1.7818  2.1131
   32GLOH   H03 8615   2.493   1.849   0.037 -2.0616 -2.0535  1.5693
   32GLOH    O1 8616   2.574   1.796   0.050 -0.1346  0.4729  0.2525
   32GLOH    C1 8617   2.643   1.865   0.155 -0.4093 -0.7610  0.6338
   32GLOH   H02 8618   2.575   1.893   0.235  0.3614  3.3621 -0.0789
   32GLOH   H08 8619   2.685   1.952   0.106 -2.2636 -0.9486 -1.3932
   32GLOH    C2 8620   2.741   1.772   0.230 -0.0595 -1.3615 -0.0077
   32GLOH   H04 8621   2.684   1.681   0.252  0.9111 -1.3508  2.7940
   32GLOH    O2 8622   2.859   1.725   0.166  0.6012 -0.2402  0.1920
   32GLOH   H05 8623   2.890   1.640   0.201 -0.6128 -0.1922  1.4334
   32GLOH    C3 8624   2.796   1.845   0.359 -0.3470  0.2418  0.0145
   32GLOH   H06 8625   2.849   1.937   0.333  0.2405 -0.6269 -2.0225
   32GLOH   H07 8626   2.861   1.776   0.413 -0.9804 -0.4181 -0.0507
   32GLOH    O3 8627   2.682   1.871   0.452 -0.1088  0.0105 -0.6871
   32GLOH   H01 8628   2.717   1.920   0.528 -0.8220 -0.0300 -0.3283
   33GLOH   H03 8629   4.263   1.119  -0.143 -1.8098  2.9895 -0.7581
   33GLOH    O1 8630   4.315   1.147  -0.221 -0.5721 -0.0261 -1.0884
   33GLOH    C1 8631   4.451   1.191  -0.193 -0.3486  0.4725  0.1849
   33GLOH   H02 8632   4.506   1.171  -0.284 -0.7688 -0.1237  0.0612
   33GLOH   H08 8633   4.491   1.129  -0.112  0.4731  1.8618  0.8809
   33GLOH    C2 8634   4.470   1.340  -0.146  0.4410  1.0442  0.2264
   33GLOH   H04 8635   4.572   1.371  -0.172 -0.0094  3.3304  1.0663
   33GLOH    O2 8636   4.363   1.421  -0.197  0.2057 -0.4585 -0.3597
   33GLOH   H05 8637   4.282   1.396  -0.150 -0.5847 -0.1047 -1.5048
   33GLOH    C3 8638   4.463   1.337   0.008  0.4416  0.0528 -0.1901
   33GLOH   H06 8639   4.362   1.310   0.041  0.6056 -2.7293 -1.8356
   33GLOH   H07 8640   4.470   1.437   0.052 -0.6346 -1.7429  4.4149
   33GLOH    O3 8641   4.562   1.258   0.076  0.3285  0.2806 -0.2310
   33GLOH   H01 8642   4.645   1.305   0.095  0.7906 -0.1768 -1.1147
   34GLOH   H03 8643   4.348   3.122   1.142  1.9384 -0.0998 -2.7130
   34GLOH    O1 8644   4.406   3.184   1.190 -0.1368 -0.2407  0.0630
   34GLOH    C1 8645   4.332   3.281   1.269 -0.3232 -0.1528  0.2264
   34GLOH   H02 8646   4.239   3.304   1.218 -0.0352 -2.6197 -1.4752
   34GLOH   H08 8647   4.379   3.379   1.265 -1.2529  0.2880 -0.0980
   34GLOH    C2 8648   4.286   3.236   1.405  0.5268 -0.4483  0.3848
   34GLOH   H04 8649   4.371   3.214   1.471  1.0807 -0.6406 -0.3894
   34GLOH    O2 8650   4.216   3.353   1.455  0.1912  0.6969  0.2711
   34GLOH   H05 8651   4.136   3.340   1.508 -0.6725  2.8321 -0.4642
   34GLOH    C3 8652   4.190   3.117   1.404  0.2834 -0.0030 -0.3204
   34GLOH   H06 8653   4.265   3.046   1.371  0.6487 -0.6865  1.9402
   34GLOH   H07 8654   4.111   3.115   1.329 -2.3431 -0.7967  2.3485
   34GLOH    O3 8655   4.138   3.081   1.533 -0.2316  0.2662 -0.4838
   34GLOH   H01 8656   4.089   3.158   1.565  1.3309  1.1329 -0.1148
   35GLOH   H03 8657   3.793   3.240   1.450  1.0963 -0.3466  0.6651
   35GLOH    O1 8658   3.766   3.276   1.537  0.0291  0.1699  0.1335
   35GLOH    C1 8659   3.635   3.228   1.580 -0.6278 -0.0811  0.0355
   35GLOH   H02 8660   3.571   3.231   1.492  2.1411 -1.1256 -2.0712
   35GLOH   H08 8661   3.591   3.296   1.653 -3.1312 -3.1477  1.5146
   35GLOH    C2 8662   3.641   3.095   1.650  0.4257  0.3970  0.9096
   35GLOH   H04 8663   3.538   3.071   1.681 -0.9296  1.3345 -2.7189
   35GLOH    O2 8664   3.679   2.982   1.573 -0.1220  0.0135 -0.2120
   35GLOH   H05 8665   3.767   3.001   1.536  0.3823  1.3030  1.5758
   35GLOH    C3 8666   3.733   3.104   1.772 -0.1048  0.0345 -0.3805
   35GLOH   H06 8667   3.832   3.110   1.726 -1.6039 -0.5563 -3.8257
   35GLOH   H07 8668   3.736   3.008   1.823 -1.3290 -1.2080 -2.5705
   35GLOH    O3 8669   3.709   3.214   1.866 -0.1757  0.2177  0.1343
   35GLOH   H01 8670   3.756   3.192   1.949 -0.2785  1.2487  0.4804
   36GLOH   H03 8671   4.341   3.463   1.515 -0.1456  0.2043  0.0440
   36GLOH    O1 8672   4.412   3.501   1.569  0.0720  0.1239 -0.1821
   36GLOH    C1 8673   4.492   3.397   1.619 -0.0213  0.0573 -0.3968
   36GLOH   H02 8674   4.570   3.448   1.675 -0.9199  0.9911  0.0466
   36GLOH   H08 8675   4.534   3.334   1.542  0.8510  0.7765 -0.5124
   36GLOH    C2 8676   4.415   3.312   1.722 -0.5991  0.0645 -0.3352
   36GLOH   H04 8677   4.328   3.276   1.665 -1.2447 -1.5932  1.6422
   36GLOH    O2 8678   4.498   3.206   1.776  0.3899  0.0434  0.2451
   36GLOH   H05 8679   4.594   3.220   1.770 -0.0063  2.7667 -0.1164
   36GLOH    C3 8680   4.370   3.399   1.837  0.1421  0.6731 -0.0194
   36GLOH   H06 8681   4.460   3.458   1.853  1.1804 -1.2836  1.6584
   36GLOH   H07 8682   4.353   3.342   1.929 -0.4340 -0.0291 -0.5616
   36GLOH    O3 8683   4.258   3.486   1.807 -0.1856  0.1662 -0.4164
   36GLOH   H01 8684   4.290   3.575   1.784  0.7131 -0.5690 -2.0750
   37GLOH   H03 8685   3.636   1.851   2.023 -1.1946  0.6951  1.9745
   37GLOH    O1 8686   3.618   1.933   1.974  0.4978  0.1188  0.3469
   37GLOH    C1 8687   3.630   1.909   1.835  0.6700 -0.2396  0.3212
   37GLOH   H02 8688   3.555   1.961   1.775  0.3816  1.4352  2.0701
   37GLOH   H08 8689   3.617   1.805   1.805 -0.3905 -0.2824  0.8717
   37GLOH    C2 8690   3.762   1.958   1.775 -0.1273  0.0800 -0.0459
   37GLOH   H04 8691   3.768   1.925   1.671  0.4447 -0.5347  0.1810
   37GLOH    O2 8692   3.768   2.104   1.776 -0.4214  0.3108  0.1998
   37GLOH   H05 8693   3.763   2.143   1.865  0.1283 -0.4788  0.5793
   37GLOH    C3 8694   3.889   1.898   1.843  0.1830  0.3423 -0.4288
   37GLOH   H06 8695   3.890   1.912   1.951  0.3107  1.2846 -0.5443
   37GLOH   H07 8696   3.974   1.951   1.799 -0.4182 -2.4278 -5.3535
   37GLOH    O3 8697   3.895   1.753   1.821  0.1138 -0.0541 -0.0743
   37GLOH   H01 8698   3.937   1.710   1.897 -0.1674  0.8125  0.5778
   38GLOH   H03 8699   4.151   2.126   1.664  0.7467 -1.1293  0.7557
   38GLOH    O1 8700   4.156   2.209   1.716 -0.3643 -0.4049 -0.2654
   38GLOH    C1 8701   4.296   2.248   1.740  1.1942  0.0097  0.2158
   38GLOH   H02 8702   4.302   2.312   1.828  1.7034 -1.4037  1.2442
   38GLOH   H08 8703   4.338   2.296   1.652  0.8260 -0.4333 -0.2063
   38GLOH    C2 8704   4.383   2.128   1.782 -0.0533  0.4587  0.0398
   38GLOH   H04 8705   4.378   2.053   1.702 -0.3311 -0.2805  0.7532
   38GLOH    O2 8706   4.521   2.168   1.775 -0.5057 -0.0710 -0.0758
   38GLOH   H05 8707   4.570   2.092   1.810 -0.4775 -0.3702 -0.7595
   38GLOH    C3 8708   4.348   2.077   1.921  0.7473  0.2719  0.2809
   38GLOH   H06 8709   4.328   2.168   1.977  0.4459 -0.5338  1.4888
   38GLOH   H07 8710   4.426   2.019   1.970  2.1173  0.1960 -1.9082
   38GLOH    O3 8711   4.218   2.012   1.916 -0.7650 -0.1682  0.1082
   38GLOH   H01 8712   4.229   1.917   1.934  0.1381 -0.0658  0.0985
   39GLOH   H03 8713   4.608   1.077   0.490  1.6049 -0.8454  0.2868
   39GLOH    O1 8714   4.582   0.992   0.449  0.6728 -0.2570 -0.3693
   39GLOH    C1 8715   4.506   0.903   0.540 -0.4928 -0.2423  0.9900
   39GLOH   H02 8716   4.536   0.923   0.643  1.1533  1.0351  0.2964
   39GLOH   H08 8717   4.537   0.801   0.522  4.0514  0.7433  2.6529
   39GLOH    C2 8718   4.353   0.910   0.513  0.1276  0.1907 -0.4153
   39GLOH   H04 8719   4.343   0.886   0.407 -1.6918 -2.3409  0.3039
   39GLOH    O2 8720   4.292   0.798   0.575  0.9136  0.2416 -0.7784
   39GLOH   H05 8721   4.329   0.789   0.664 -2.0756 -1.2974  0.4115
   39GLOH    C3 8722   4.290   1.049   0.547  0.9038  0.6317  0.8101
   39GLOH   H06 8723   4.292   1.063   0.655  0.7766  1.7706  0.6703
   39GLOH   H07 8724   4.185   1.041   0.517  1.4149 -0.8933 -0.6899
   39GLOH    O3 8725   4.350   1.160   0.478  0.1919  0.1810  0.1284
   39GLOH   H01 8726   4.367   1.124   0.389 -1.2794  0.0829 -0.1288
   40GLOH   H03 8727   3.271   0.975   0.355  1.8568 -1.6404  1.0505
   40GLOH    O1 8728   3.204   0.938   0.416 -0.3583  0.0682 -0.2914
   40GLOH    C1 8729   3.111   1.032   0.478 -0.4466  0.0859  0.1777
   40GLOH   H02 8730   3.134   1.135   0.450 -0.3610  0.0173 -0.0001
   40GLOH   H08 8731   3.124   1.020   0.585 -1.8467 -1.9898  0.1454
   40GLOH    C2 8732   2.965   1.015   0.431 -0.2463  0.8127  0.2568
   40GLOH   H04 8733   2.935   0.915   0.466  1.0823 -0.3938 -1.8884
   40GLOH    O2 8734   2.877   1.119   0.481 -0.0243 -0.4668 -0.2859
   40GLOH   H05 8735   2.802   1.074   0.524 -0.6329 -0.4582 -1.3245
   40GLOH    C3 8736   2.960   1.016   0.280  0.6815 -0.1092  0.2206
   40GLOH   H06 8737   3.017   1.105   0.250  1.0006  0.1297  1.5254
   40GLOH   H07 8738   2.861   1.035   0.238 -0.2895 -1.4654  1.8329
   40GLOH    O3 8739   3.011   0.901   0.216  0.3361 -0.4123 -0.5047
   40GLOH   H01 8740   3.016   0.910   0.119 -0.8209  1.0843 -0.4465
   41GLOH   H03 8741   3.365   1.405  -0.131 -1.1071  0.4114 -0.3853
   41GLOH    O1 8742   3.323   1.354  -0.059 -0.1210  0.5497  0.3036
   41GLOH    C1 8743   3.174   1.352  -0.072 -1.1373 -0.2721  0.0734
   41GLOH   H02 8744   3.158   1.316  -0.173  0.7107  0.7706 -0.6085
   41GLOH   H08 8745   3.125   1.449  -0.064 -1.3605 -0.4152  0.4415
   41GLOH    C2 8746   3.108   1.261   0.031  0.1342 -0.6554  0.6043
   41GLOH   H04 8747   3.159   1.163   0.028  0.3187 -0.5415 -0.2560
   41GLOH    O2 8748   3.131   1.313   0.163 -0.3511  0.0754  0.1627
   41GLOH   H05 8749   3.228   1.314   0.171 -0.0203 -1.1725 -2.9760
   41GLOH    C3 8750   2.962   1.253   0.001  0.3388 -0.1013 -0.1186
   41GLOH   H06 8751   2.917   1.191   0.078 -0.0125 -0.6175 -0.7360
   41GLOH   H07 8752   2.957   1.187  -0.086  0.3907 -1.0222  0.5775
   41GLOH    O3 8753   2.884   1.371  -0.012 -0.3836 -0.7181 -0.0429
   41GLOH   H01 8754   2.888   1.412   0.076  1.5320 -0.2040 -0.3329
   42GLOH   H03 8755   4.179   2.807   0.006 -0.3040 -0.5905  0.1885
   42GLOH    O1 8756   4.231   2.740   0.054  0.4470 -0.0897  0.0846
   42GLOH    C1 8757   4.213   2.615  -0.011  0.5053  0.1896 -0.2235
   42GLOH   H02 8758   4.119   2.610  -0.067 -0.1158  2.9296  0.5057
   42GLOH   H08 8759   4.195   2.537   0.062  0.9581 -1.3683 -1.7326
   42GLOH    C2 8760   4.336   2.581  -0.100  0.2000  0.2071 -1.3096
   42GLOH   H04 8761   4.425   2.573  -0.035  0.0373 -1.5169 -1.2917
   42GLOH    O2 8762   4.324   2.459  -0.174  0.4632 -0.1041 -0.0211
   42GLOH   H05 8763   4.269   2.468  -0.253 -2.2961  1.1397  1.9469
   42GLOH    C3 8764   4.380   2.697  -0.188  0.0736 -0.2130  0.0017
   42GLOH   H06 8765   4.480   2.666  -0.218 -0.5493 -1.2677 -1.0701
   42GLOH   H07 8766   4.384   2.786  -0.126  2.9380 -0.6066  0.4514
   42GLOH    O3 8767   4.287   2.725  -0.296  0.2972 -0.2544 -0.2425
   42GLOH   H01 8768   4.267   2.637  -0.334 -0.4226 -0.7162  1.1808
   43GLOH   H03 8769   3.218   9.631   0.239 -0.0129  0.9194 -0.5913
   43GLOH    O1 8770   3.150   9.696   0.265 -0.1492  0.4226  0.3032
   43GLOH    C1 8771   3.166   9.724   0.404 -0.0892 -0.5121 -0.6368
   43GLOH   H02 8772   3.110   9.659   0.472 -0.9811  0.9853  0.0846
   43GLOH   H08 8773   3.123   9.821   0.429  1.0115  0.1970 -1.4642
   43GLOH    C2 8774   3.315   9.723   0.442  0.6208  0.3081  0.5014
   43GLOH   H04 8775   3.358   9.806   0.384 -1.5451  0.0202 -1.5686
   43GLOH    O2 8776   3.324   9.735   0.591 -0.0117 -0.0158  0.5328
   43GLOH   H05 8777   3.234   9.757   0.622 -0.9208  0.2398 -2.1431
   43GLOH    C3 8778   3.381   9.585   0.396 -0.5103 -0.1577 -0.2042
   43GLOH   H06 8779   3.326   9.505   0.446  0.9443 -1.4128 -0.5770
   43GLOH   H07 8780   3.482   9.586   0.437 -0.4927 -0.3105 -0.2452
   43GLOH    O3 8781   3.382   9.565   0.257  0.0331  0.3072 -0.3562
   43GLOH   H01 8782   3.468   9.589   0.217  0.2331 -3.1907 -2.2318
   44GLOH   H03 8783   3.467   1.360   2.104 -0.5512  1.0334  0.3037
   44GLOH    O1 8784   3.471   1.425   2.032 -0.1484  0.3948 -0.2556
   44GLOH    C1 8785   3.583   1.521   2.045 -0.0097 -0.1220  0.5557
   44GLOH   H02 8786   3.615   1.560   1.949  1.7129  0.3527  1.2965
   44GLOH   H08 8787   3.672   1.469   2.081  0.4129  0.0189 -0.2777
   44GLOH    C2 8788   3.558   1.653   2.136  0.0171  0.0335 -0.3070
   44GLOH   H04 8789   3.559   1.612   2.238  0.9008  1.4713  0.2859
   44GLOH    O2 8790   3.676   1.734   2.125  0.1797  0.4049  0.1750
   44GLOH   H05 8791   3.749   1.687   2.171 -0.1804 -0.6986 -0.3650
   44GLOH    C3 8792   3.425   1.727   2.112 -0.2262  0.0749 -0.0861
   44GLOH   H06 8793   3.419   1.742   2.005  2.2568 -0.8075 -0.3837
   44GLOH   H07 8794   3.432   1.821   2.166 -0.2356  0.0512 -0.0436
   44GLOH    O3 8795   3.310   1.651   2.149  0.2863  0.2938 -0.3391
   44GLOH   H01 8796   3.229   1.705   2.142  0.7928  0.8878 -1.6754
   45GLOH   H03 8797   4.007   1.964   2.345 -0.2282 -2.3602  0.3475
   45GLOH    O1 8798   4.100   1.936   2.348  0.4963 -0.0030  0.4457
   45GLOH    C1 8799   4.182   2.031   2.274 -0.2787  0.0108  0.5333
   45GLOH   H02 8800   4.214   2.005   2.172 -1.5437  3.5040 -0.8321
   45GLOH   H08 8801   4.275   2.048   2.327  0.4407  0.5080 -0.8448
   45GLOH    C2 8802   4.116   2.169   2.271 -0.4998  0.1579  0.0540
   45GLOH   H04 8803   4.016   2.167   2.317 -0.3793 -0.4518  0.2938
   45GLOH    O2 8804   4.191   2.270   2.339 -0.4654 -0.0139 -0.4307
   45GLOH   H05 8805   4.178   2.259   2.434  1.6366 -1.7245 -0.2953
   45GLOH    C3 8806   4.089   2.228   2.130  0.5105  0.0474 -0.2341
   45GLOH   H06 8807   4.186   2.255   2.088  1.2200  1.2360  2.0711
   45GLOH   H07 8808   4.031   2.320   2.140 -1.7267 -1.2913 -0.5057
   45GLOH    O3 8809   4.018   2.134   2.043 -0.3347 -0.2114 -0.2289
   45GLOH   H01 8810   4.081   2.077   1.994  1.0065 -0.0813  1.3193
   46GLOH   H03 8811   3.817  10.538   0.672 -3.4280 -2.0230  2.4148
   46GLOH    O1 8812   3.802  10.475   0.599  0.8570 -0.3873 -0.0866
   46GLOH    C1 8813   3.835  10.333   0.619 -0.5427 -0.6051  0.2230
   46GLOH   H02 8814   3.917  10.321   0.691  0.5106 -0.8076 -0.9888
   46GLOH   H08 8815   3.867  10.291   0.524 -0.0091  0.4374 -0.0727
   46GLOH    C2 8816   3.714  10.249   0.661 -0.5103 -0.0076 -0.0837
   46GLOH   H04 8817   3.751  10.147   0.680  1.2201  1.0413  2.4197
   46GLOH    O2 8818   3.657  10.294   0.783  0.0738 -0.5631  0.9368
   46GLOH   H05 8819   3.723  10.315   0.851  0.8858 -2.6854  0.8429
   46GLOH    C3 8820   3.611  10.238   0.550 -0.0621 -0.1494 -0.2450
   46GLOH   H06 8821   3.584  10.338   0.514 -1.0888  0.0120  0.9281
   46GLOH   H07 8822   3.520  10.200   0.595 -0.9898  2.8106  0.5065
   46GLOH    O3 8823   3.653  10.165   0.435 -0.0932 -0.1047 -0.1332
   46GLOH   H01 8824   3.571  10.128   0.397 -0.4601  0.3309  0.2244
   47GLOH   H03 8825   2.328   1.272   1.704  0.0473  0.4212 -0.7624
   47GLOH    O1 8826   2.373   1.345   1.658  0.6693  0.3043 -0.3525
   47GLOH    C1 8827   2.300   1.364   1.539  0.1151  0.3717 -0.1972
   47GLOH   H02 8828   2.348   1.306   1.460 -1.7653 -1.5258  0.0087
   47GLOH   H08 8829   2.313   1.471   1.525 -0.2282  0.5290  0.6377
   47GLOH    C2 8830   2.152   1.328   1.546  0.1181 -0.0067  0.4048
   47GLOH   H04 8831   2.106   1.402   1.613  0.8574 -1.4090  2.5019
   47GLOH    O2 8832   2.109   1.343   1.410  0.1639  0.1138  0.0543
   47GLOH   H05 8833   2.112   1.437   1.388 -0.1359  0.2425  0.5508
   47GLOH    C3 8834   2.134   1.178   1.584  0.1859  0.2502  0.0766
   47GLOH   H06 8835   2.172   1.126   1.496 -1.7873 -2.0059  0.5146
   47GLOH   H07 8836   2.025   1.174   1.586  0.1072  1.7357 -0.3881
   47GLOH    O3 8837   2.199   1.139   1.706  0.3119 -0.1477  0.0307
   47GLOH   H01 8838   2.232   1.048   1.696  0.5261 -0.3175  2.0290
   48GLOH   H03 8839   2.783   9.795   0.590  0.8670 -0.8061 -0.0081
   48GLOH    O1 8840   2.872   9.815   0.554  0.5042  0.8074 -0.0479
   48GLOH    C1 8841   2.852   9.854   0.420 -0.6916  0.5343 -0.4618
   48GLOH   H02 8842   2.867   9.764   0.359  0.5181  0.7001 -0.4290
   48GLOH   H08 8843   2.934   9.920   0.389  0.9076 -0.2184  2.0204
   48GLOH    C2 8844   2.727   9.934   0.389  0.2096  0.3445  0.1071
   48GLOH   H04 8845   2.740  10.037   0.425 -0.3774  0.9413 -1.3481
   48GLOH    O2 8846   2.719   9.944   0.244 -0.0456 -0.1316  0.5289
   48GLOH   H05 8847   2.784  10.009   0.214  0.7674 -1.0627  0.2593
   48GLOH    C3 8848   2.600   9.868   0.447 -0.4284 -0.4886  0.1455
   48GLOH   H06 8849   2.582   9.779   0.387 -0.2639  0.4106 -1.2703
   48GLOH   H07 8850   2.510   9.928   0.437 -1.2373 -1.3431  2.0443
   48GLOH    O3 8851   2.614   9.828   0.586  0.1547 -0.2050  0.5700
   48GLOH   H01 8852   2.617   9.912   0.635 -2.6815  0.8990 -1.0401
   49GLOH   H03 8853   3.189  10.397   0.280  3.8309  0.5574 -1.0427
   49GLOH    O1 8854   3.205  10.422   0.373  0.2638 -0.3875 -0.0948
   49GLOH    C1 8855   3.335  10.487   0.384  0.3490  0.4295 -0.0782
   49GLOH   H02 8856   3.397  10.454   0.300  0.3603  0.9886 -0.2896
   49GLOH   H08 8857   3.377  10.457   0.480  0.0118 -0.8118 -0.2984
   49GLOH    C2 8858   3.324  10.641   0.383  0.2138 -0.2694  0.2033
   49GLOH   H04 8859   3.285  10.682   0.288  1.4789  1.2226  0.3168
   49GLOH    O2 8860   3.251  10.710   0.483 -0.1995  0.1911 -0.8586
   49GLOH   H05 8861   3.234  10.802   0.454 -2.1888 -0.0649 -0.6111
   49GLOH    C3 8862   3.465  10.705   0.390 -0.8451  0.4641  0.2194
   49GLOH   H06 8863   3.520  10.646   0.464  1.5667  0.6119 -1.3695
   49GLOH   H07 8864   3.460  10.810   0.418 -1.9678 -0.1418  2.4528
   49GLOH    O3 8865   3.545  10.679   0.272  0.3902 -0.8721 -0.2191
   49GLOH   H01 8866   3.613  10.747   0.251 -1.8867  1.1376 -1.2690
   50GLOH   H03 8867   3.864   1.475   2.221  0.5784  0.6197 -3.4731
   50GLOH    O1 8868   3.838   1.567   2.238  0.1200 -0.1486  0.5139
   50GLOH    C1 8869   3.879   1.616   2.361  0.8546  1.1487  0.1217
   50GLOH   H02 8870   3.846   1.720   2.356  1.3338  1.2933 -0.0883
   50GLOH   H08 8871   3.988   1.614   2.356  0.8677  1.2365  0.4001
   50GLOH    C2 8872   3.829   1.539   2.482 -0.5884  0.6459 -0.3809
   50GLOH   H04 8873   3.720   1.553   2.491 -0.7631 -0.9971  0.1602
   50GLOH    O2 8874   3.876   1.401   2.476  0.4986 -0.0280 -0.2137
   50GLOH   H05 8875   3.821   1.343   2.533 -0.8702  1.4599  0.0203
   50GLOH    C3 8876   3.889   1.588   2.615  0.4128 -0.3037 -0.3962
   50GLOH   H06 8877   3.996   1.603   2.601  0.5726  0.7870  1.6957
   50GLOH   H07 8878   3.884   1.510   2.691 -1.7974 -0.7737 -0.9973
   50GLOH    O3 8879   3.830   1.711   2.651 -0.4167 -0.1073 -0.9386
   50GLOH   H01 8880   3.842   1.735   2.744 -0.6849  0.6607 -1.0939
   51GLOH   H03 8881   2.503   9.919   2.364 -0.5077 -0.0350  0.9484
   51GLOH    O1 8882   2.559   9.842   2.383 -0.3584 -0.1463  0.0790
   51GLOH    C1 8883   2.505   9.796   2.507 -0.7324  0.3740 -0.2423
   51GLOH   H02 8884   2.489   9.688   2.506  0.2157  0.2302 -1.7000
   51GLOH   H08 8885   2.409   9.842   2.531 -0.8520  0.9746 -1.8001
   51GLOH    C2 8886   2.600   9.819   2.626 -0.1296  0.1903 -0.3973
   51GLOH   H04 8887   2.634   9.924   2.617  1.0026 -0.2762 -1.5767
   51GLOH    O2 8888   2.546   9.811   2.765 -0.2328 -0.1692  0.4887
   51GLOH   H05 8889   2.621   9.835   2.823 -0.0728 -0.5635  0.4483
   51GLOH    C3 8890   2.727   9.728   2.617  0.6160  0.8114  0.3294
   51GLOH   H06 8891   2.706   9.625   2.648  1.8082  0.2217 -0.8069
   51GLOH   H07 8892   2.806   9.772   2.677  1.7276  1.4882 -1.6007
   51GLOH    O3 8893   2.779   9.717   2.485  0.1271  0.2171  0.3421
   51GLOH   H01 8894   2.711   9.737   2.419 -0.5616  2.2060  1.6092
   52GLOH   H03 8895   2.642   0.705   0.496 -0.7958  1.9882 -1.4892
   52GLOH    O1 8896   2.614   0.754   0.576  0.4507 -0.0935  0.2927
   52GLOH    C1 8897   2.492   0.709   0.644 -0.0754 -0.5819 -0.1270
   52GLOH   H02 8898   2.467   0.605   0.624 -1.8329 -0.3733  0.8173
   52GLOH   H08 8899   2.406   0.768   0.613 -0.9471 -1.3706  0.7583
   52GLOH    C2 8900   2.500   0.719   0.799 -0.4236 -0.0416  0.3796
   52GLOH   H04 8901   2.536   0.819   0.826  0.4056 -0.3440  0.4112
   52GLOH    O2 8902   2.370   0.687   0.863  0.3833  0.6745  0.4509
   52GLOH   H05 8903   2.369   0.594   0.888  1.3429  1.0015  1.7715
   52GLOH    C3 8904   2.607   0.627   0.859 -0.0996 -0.2521  0.1221
   52GLOH   H06 8905   2.611   0.530   0.809 -1.9069 -1.4098  2.1295
   52GLOH   H07 8906   2.599   0.600   0.964 -1.4700 -0.5366 -0.0397
   52GLOH    O3 8907   2.734   0.696   0.854 -0.1809  0.2897 -0.1113
   52GLOH   H01 8908   2.782   0.656   0.779  1.4987  1.5497  0.2608
   53GLOH   H03 8909   2.879  10.655   2.122 -1.3617  0.2165  1.0791
   53GLOH    O1 8910   2.866  10.587   2.053 -0.2514  0.3451  0.7431
   53GLOH    C1 8911   2.917  10.467   2.115 -0.4544  0.1201  0.0306
   53GLOH   H02 8912   3.024  10.463   2.093 -0.4396 -0.6901  0.2166
   53GLOH   H08 8913   2.873  10.379   2.069 -1.0333  0.5631 -0.2739
   53GLOH    C2 8914   2.902  10.456   2.270  0.1622 -0.4648  0.0107
   53GLOH   H04 8915   2.796  10.441   2.295  0.1408 -0.1541  0.1137
   53GLOH    O2 8916   2.972  10.340   2.320 -0.5017 -0.8638 -0.1831
   53GLOH   H05 8917   2.974  10.279   2.244 -2.0506  0.4608 -1.3216
   53GLOH    C3 8918   2.948  10.584   2.348 -0.2834 -0.0157 -0.0740
   53GLOH   H06 8919   3.056  10.578   2.362 -0.8917 -2.5496  4.4958
   53GLOH   H07 8920   2.913  10.578   2.451 -2.3908 -2.1683 -0.8737
   53GLOH    O3 8921   2.894  10.704   2.287 -0.0568  0.7962  0.7565
   53GLOH   H01 8922   2.811  10.731   2.329 -0.6735  1.3659 -0.7678
   54GLOH   H03 8923   3.582   0.892   0.025  0.1034 -0.8025 -0.5629
   54GLOH    O1 8924   3.504   0.899   0.083  0.4845  0.4931 -0.1902
   54GLOH    C1 8925   3.394   0.891  -0.009 -0.7327 -0.1805 -0.1217
   54GLOH   H02 8926   3.390   0.980  -0.072 -0.2514  0.2610  0.4676
   54GLOH   H08 8927   3.299   0.874   0.041 -0.8181 -0.1375 -0.2684
   54GLOH    C2 8928   3.412   0.786  -0.117 -0.7149 -0.3709  0.5238
   54GLOH   H04 8929   3.319   0.769  -0.173  0.9847  0.0506 -2.5414
   54GLOH    O2 8930   3.515   0.816  -0.210  0.4970 -0.1473  0.2680
   54GLOH   H05 8931   3.534   0.911  -0.222 -1.7143  0.1326 -1.3019
   54GLOH    C3 8932   3.447   0.653  -0.049  0.1908 -0.7218  0.1786
   54GLOH   H06 8933   3.554   0.648  -0.027  0.0856  1.0473  1.1652
   54GLOH   H07 8934   3.429   0.572  -0.120  1.1857 -0.4472 -0.3999
   54GLOH    O3 8935   3.374   0.617   0.068  0.3250  0.1655  0.0026
   54GLOH   H01 8936   3.438   0.646   0.136  2.7394 -2.4585 -1.0550
   55GLOH   H03 8937   4.384   2.150   0.932  0.0972 -1.0991  0.6194
   55GLOH    O1 8938   4.422   2.142   0.842 -0.1332  0.2095  0.4031
   55GLOH    C1 8939   4.438   2.272   0.788 -0.0435 -0.0861 -0.2309
   55GLOH   H02 8940   4.481   2.262   0.688  1.2004  0.3144  0.2570
   55GLOH   H08 8941   4.512   2.326   0.847  0.0194 -2.1923  1.7100
   55GLOH    C2 8942   4.313   2.355   0.775  0.1647  0.3627 -0.2344
   55GLOH   H04 8943   4.261   2.350   0.872 -0.8714 -0.6053 -0.8264
   55GLOH    O2 8944   4.331   2.491   0.731 -0.0030  0.2763  0.1825
   55GLOH   H05 8945   4.386   2.489   0.651  1.5615  0.6260  1.2120
   55GLOH    C3 8946   4.208   2.290   0.691 -0.1688  0.2158 -0.7816
   55GLOH   H06 8947   4.124   2.356   0.715  1.2546  1.6083  0.4926
   55GLOH   H07 8948   4.183   2.191   0.730  1.1470 -0.4348 -1.5931
   55GLOH    O3 8949   4.240   2.277   0.555 -0.5687 -1.0076  0.1907
   55GLOH   H01 8950   4.159   2.261   0.504  0.6820  1.1459 -2.6480
   56GLOH   H03 8951   3.871   2.328   1.013  0.0206  0.3612  2.0538
   56GLOH    O1 8952   3.831   2.415   0.997  0.0299  0.0651  0.4117
   56GLOH    C1 8953   3.878   2.512   1.088  0.0757  0.0395 -0.0297
   56GLOH   H02 8954   3.986   2.496   1.091  0.0851 -0.0711 -0.8713
   56GLOH   H08 8955   3.837   2.495   1.187 -6.1216  0.6986 -2.2828
   56GLOH    C2 8956   3.857   2.658   1.041  0.9558  0.4256 -0.6572
   56GLOH   H04 8957   3.750   2.670   1.019  1.0160  0.8767 -0.7107
   56GLOH    O2 8958   3.896   2.758   1.137 -0.1392  0.0848  0.3913
   56GLOH   H05 8959   3.886   2.727   1.229 -0.6265 -1.5632 -0.2112
   56GLOH    C3 8960   3.922   2.678   0.902  0.4722  0.1309  0.3835
   56GLOH   H06 8961   4.025   2.703   0.924  0.5192 -0.7766  1.2542
   56GLOH   H07 8962   3.876   2.768   0.862 -1.7964 -1.0424  0.2325
   56GLOH    O3 8963   3.904   2.568   0.809 -0.2329 -0.2570  0.3783
   56GLOH   H01 8964   3.863   2.504   0.869  0.1369 -0.7210  0.1395
   57GLOH   H03 8965   2.632   1.120   1.946  2.1740  1.9688  2.3845
   57GLOH    O1 8966   2.573   1.076   2.009  0.6103 -0.2389 -0.4581
   57GLOH    C1 8967   2.647   1.103   2.133  0.5116  0.2834  0.1746
   57GLOH   H02 8968   2.685   1.205   2.129  0.8589  0.1294 -0.5787
   57GLOH   H08 8969   2.729   1.032   2.144 -0.1948 -0.7146 -0.9091
   57GLOH    C2 8970   2.560   1.101   2.261 -0.7724  0.2589  0.7178
   57GLOH   H04 8971   2.515   1.002   2.282  3.3144 -1.8393  0.1753
   57GLOH    O2 8972   2.636   1.128   2.381  0.6677 -0.8882 -0.0879
   57GLOH   H05 8973   2.573   1.129   2.454  0.3021 -0.9775 -0.4026
   57GLOH    C3 8974   2.445   1.207   2.247  0.8509 -0.5855 -0.2818
   57GLOH   H06 8975   2.379   1.172   2.326  0.7697  0.2690  0.0335
   57GLOH   H07 8976   2.390   1.180   2.157 -1.1492 -0.5404  0.9085
   57GLOH    O3 8977   2.491   1.343   2.254 -0.0685 -0.0791  0.2737
   57GLOH   H01 8978   2.437   1.393   2.318  0.2490  0.7718 -0.1022
   58GLOH   H03 8979   3.294   1.018   1.229 -3.3315 -0.6626  1.0774
   58GLOH    O1 8980   3.290   1.107   1.270 -0.2630  0.0108  0.0213
   58GLOH    C1 8981   3.376   1.188   1.183 -0.6451  0.0256 -0.3136
   58GLOH   H02 8982   3.344   1.290   1.162 -0.7600  0.2295  0.8222
   58GLOH   H08 8983   3.390   1.130   1.092  0.7041  1.0015 -0.7497
   58GLOH    C2 8984   3.520   1.199   1.239  0.3110  0.5083 -0.1598
   58GLOH   H04 8985   3.561   1.103   1.275  0.3202  1.0825  1.4222
   58GLOH    O2 8986   3.605   1.263   1.140 -0.0260  0.3625  0.1724
   58GLOH   H05 8987   3.696   1.272   1.175  0.4229  0.3839 -0.9621
   58GLOH    C3 8988   3.522   1.290   1.363  0.0429 -0.0627  0.8952
   58GLOH   H06 8989   3.492   1.391   1.339  0.0009 -0.4719 -0.8281
   58GLOH   H07 8990   3.626   1.286   1.396  0.4149  3.9524  0.3880
   58GLOH    O3 8991   3.443   1.226   1.465 -0.0553  0.2223  0.5558
   58GLOH   H01 8992   3.387   1.161   1.418  0.1617 -0.9742  1.9073
   59GLOH   H03 8993   4.384   1.557   2.384 -1.5703 -2.0289 -1.3735
   59GLOH    O1 8994   4.395   1.604   2.299  0.2311 -0.4107 -0.2639
   59GLOH    C1 8995   4.437   1.743   2.304 -0.5477  0.4131  0.0173
   59GLOH   H02 8996   4.501   1.760   2.391 -0.7993  0.6074  0.1627
   59GLOH   H08 8997   4.348   1.801   2.328 -1.0663 -0.8821  1.3009
   59GLOH    C2 8998   4.514   1.795   2.179 -0.4903 -0.2504 -0.2369
   59GLOH   H04 8999   4.609   1.740   2.187 -0.0937  0.3800 -0.5492
   59GLOH    O2 9000   4.443   1.763   2.055  0.3898  0.1398  0.2722
   59GLOH   H05 9001   4.482   1.685   2.013 -2.4199 -0.6204 -1.0670
   59GLOH    C3 9002   4.546   1.945   2.191  0.2758 -0.2644  0.3486
   59GLOH   H06 9003   4.579   1.953   2.295  3.1409 -1.8210 -0.3905
   59GLOH   H07 9004   4.460   2.010   2.178  2.4514  2.1092 -2.7010
   59GLOH    O3 9005   4.650   1.991   2.098  1.1158 -0.3313 -0.1099
   59GLOH   H01 9006   4.729   2.014   2.151  0.6874  0.9670 -0.0262
   60GLOH   H03 9007   3.321   1.408   0.657 -0.2984  1.8545 -1.9102
   60GLOH    O1 9008   3.303   1.332   0.599 -0.0617  0.1140  0.2228
   60GLOH    C1 9009   3.296   1.364   0.459  0.2691 -0.3185  0.0450
   60GLOH   H02 9010   3.217   1.435   0.435  0.3456  0.6540  2.5849
   60GLOH   H08 9011   3.263   1.273   0.407  0.1443 -0.6565  0.7129
   60GLOH    C2 9012   3.431   1.411   0.403 -0.2431 -0.4949  0.7879
   60GLOH   H04 9013   3.456   1.499   0.464  0.9528 -0.9884  1.0295
   60GLOH    O2 9014   3.529   1.306   0.420  0.0940  0.6878  0.3478
   60GLOH   H05 9015   3.541   1.260   0.504 -1.9237  1.2593  0.9720
   60GLOH    C3 9016   3.407   1.445   0.256  0.3358  0.4598  0.8621
   60GLOH   H06 9017   3.499   1.492   0.220 -0.1693  0.9464  0.1912
   60GLOH   H07 9018   3.327   1.517   0.238  1.0844  0.7932 -1.3725
   60GLOH    O3 9019   3.367   1.329   0.179 -0.7457  0.0055  0.0135
   60GLOH   H01 9020   3.367   1.353   0.085  0.2840  2.3473  0.5846
   61GLOH   H03 9021   2.534   1.670  -0.011  0.7828 -1.2697  1.0918
   61GLOH    O1 9022   2.511   1.603  -0.077  0.1604 -0.0034 -0.0168
   61GLOH    C1 9023   2.555   1.477  -0.024 -0.6702 -0.4373 -0.2392
   61GLOH   H02 9024   2.656   1.496   0.013 -0.7241  0.7991 -0.7199
   61GLOH   H08 9025   2.575   1.409  -0.107 -2.9401 -1.4549 -0.0021
   61GLOH    C2 9026   2.464   1.414   0.087  0.5905  0.4412  0.3653
   61GLOH   H04 9027   2.366   1.398   0.039  0.3758  2.3284  0.1124
   61GLOH    O2 9028   2.518   1.285   0.124  0.6236 -0.2104 -0.2768
   61GLOH   H05 9029   2.535   1.274   0.219  3.3022  0.3674 -0.6529
   61GLOH    C3 9030   2.429   1.513   0.201  0.9431 -0.4808  0.2475
   61GLOH   H06 9031   2.394   1.605   0.153  0.4270  0.1936  1.8781
   61GLOH   H07 9032   2.519   1.526   0.260  0.0570  0.6517  1.3801
   61GLOH    O3 9033   2.323   1.475   0.284 -0.4576  0.4954  0.3334
   61GLOH   H01 9034   2.359   1.404   0.340  0.7527  1.2046  0.4649
   62GLOH   H03 9035   4.082   1.436   0.388  2.5065 -1.0183  0.0750
   62GLOH    O1 9036   4.094   1.390   0.303 -0.2246 -0.2901 -0.7683
   62GLOH    C1 9037   3.965   1.347   0.268 -0.6857  0.7098 -0.0137
   62GLOH   H02 9038   3.973   1.316   0.163 -1.3641  0.5876 -0.0308
   62GLOH   H08 9039   3.894   1.430   0.262 -0.9466  0.4501 -0.6073
   62GLOH    C2 9040   3.900   1.228   0.340 -0.3729  0.0760  0.3037
   62GLOH   H04 9041   3.972   1.146   0.329 -0.0221  0.4137  0.0794
   62GLOH    O2 9042   3.881   1.243   0.482 -0.0272  0.4523 -0.4800
   62GLOH   H05 9043   3.969   1.243   0.524 -0.7717 -2.2387  1.2339
   62GLOH    C3 9044   3.771   1.172   0.271 -0.4464 -0.7382 -0.1678
   62GLOH   H06 9045   3.706   1.105   0.328  0.4744 -0.5183  1.1759
   62GLOH   H07 9046   3.803   1.108   0.189 -3.9148  0.8564 -2.8470
   62GLOH    O3 9047   3.696   1.281   0.214 -0.2222  0.6998  0.0371
   62GLOH   H01 9048   3.630   1.299   0.284  1.8937  0.5402  2.1227
   63GLOH   H03 9049   4.706   1.543   0.110  0.8098 -0.1252  0.5035
   63GLOH    O1 9050   4.708   1.455   0.151 -0.3671 -0.6642 -0.5638
   63GLOH    C1 9051   4.790   1.482   0.267  0.9803  1.1229  0.2124
   63GLOH   H02 9052   4.897   1.477   0.247  1.0024 -2.8581  0.9355
   63GLOH   H08 9053   4.771   1.409   0.346 -1.0302  1.1976 -0.1775
   63GLOH    C2 9054   4.757   1.613   0.326 -1.0099 -0.0992 -0.3893
   63GLOH   H04 9055   4.653   1.607   0.361 -0.4654 -1.3528  1.0454
   63GLOH    O2 9056   4.840   1.642   0.436 -0.2469  0.1511 -0.2934
   63GLOH   H05 9057   4.805   1.591   0.511 -0.7524  1.0044  0.0608
   63GLOH    C3 9058   4.781   1.724   0.230 -0.0023 -0.3155 -0.6509
   63GLOH   H06 9059   4.890   1.728   0.226  0.1243 -1.5545  1.0718
   63GLOH   H07 9060   4.750   1.818   0.277 -0.5146 -0.0346 -1.5435
   63GLOH    O3 9061   4.715   1.700   0.107  0.0603 -0.1890 -0.1160
   63GLOH   H01 9062   4.734   1.773   0.045  2.0633  0.0490  0.7515
   64GLOH   H03 9063   3.567   1.248   1.567  1.9643  0.8447 -1.2282
   64GLOH    O1 9064   3.636   1.225   1.632  0.2259  0.0776  0.3643
   64GLOH    C1 9065   3.583   1.222   1.764 -0.4903 -0.9182  0.4328
   64GLOH   H02 9066   3.487   1.171   1.759 -1.4145  0.9209 -1.0092
   64GLOH   H08 9067   3.561   1.325   1.791  1.9007 -0.5725  1.2006
   64GLOH    C2 9068   3.667   1.175   1.885  0.2878 -0.7498  0.1282
   64GLOH   H04 9069   3.625   1.206   1.981  2.9182 -0.9268  1.3844
   64GLOH    O2 9070   3.680   1.035   1.876 -0.4355  0.4363  0.2262
   64GLOH   H05 9071   3.775   1.012   1.878  0.1792  2.9112  1.3203
   64GLOH    C3 9072   3.815   1.232   1.889  0.9087  0.1229 -0.0301
   64GLOH   H06 9073   3.856   1.232   1.787  0.1102 -1.3572 -0.3683
   64GLOH   H07 9074   3.877   1.167   1.951 -0.8161 -1.0077  0.5219
   64GLOH    O3 9075   3.810   1.375   1.930 -0.2010 -0.4030  0.4143
   64GLOH   H01 9076   3.760   1.424   1.862 -1.8037 -1.1079  1.0557
   65GLOH   H03 9077   3.939  10.049   1.763 -0.3079 -2.0261 -0.5282
   65GLOH    O1 9078   3.955  10.060   1.668 -0.1418  0.3322 -0.2574
   65GLOH    C1 9079   3.951   9.930   1.599  0.4725 -0.3590 -0.3043
   65GLOH   H02 9080   3.870   9.876   1.647  0.0112  1.3674  0.8830
   65GLOH   H08 9081   4.045   9.877   1.617  0.0856 -0.8473  0.3194
   65GLOH    C2 9082   3.921   9.947   1.448  0.1241 -1.1445 -0.4139
   65GLOH   H04 9083   3.999  10.015   1.412 -1.1538  0.1267 -0.8301
   65GLOH    O2 9084   3.927   9.821   1.374  0.0768  0.6027 -0.0640
   65GLOH   H05 9085   3.920   9.834   1.278 -0.2636  0.3034 -0.0793
   65GLOH    C3 9086   3.779  10.015   1.428  0.2410  0.6511 -0.4023
   65GLOH   H06 9087   3.712   9.936   1.463  1.5557 -1.0651 -1.6868
   65GLOH   H07 9088   3.764  10.039   1.323 -1.2131  4.8878  0.6848
   65GLOH    O3 9089   3.763  10.138   1.505 -0.2819 -0.5020 -0.0260
   65GLOH   H01 9090   3.832  10.146   1.573 -1.0180  0.5508  0.6302
   66GLOH   H03 9091   4.205  10.430  -0.063 -1.0948  2.2502  0.9080
   66GLOH    O1 9092   4.278  10.479  -0.106  0.2428 -0.1159  0.4108
   66GLOH    C1 9093   4.217  10.511  -0.234 -0.1569 -0.1344  0.1861
   66GLOH   H02 9094   4.189  10.422  -0.291  0.9723  0.0580 -0.6812
   66GLOH   H08 9095   4.291  10.565  -0.293 -0.4862  0.5246  0.3656
   66GLOH    C2 9096   4.083  10.585  -0.224  0.2586 -0.6508 -0.1999
   66GLOH   H04 9097   4.085  10.657  -0.141  1.5837  1.5552 -2.1079
   66GLOH    O2 9098   4.036  10.640  -0.350  0.5990  0.2323 -0.1078
   66GLOH   H05 9099   4.005  10.563  -0.400  3.8794  0.5846 -2.8577
   66GLOH    C3 9100   3.972  10.485  -0.180 -0.3027  0.4024 -0.2790
   66GLOH   H06 9101   3.953  10.403  -0.249  2.2734 -0.3073 -0.2009
   66GLOH   H07 9102   3.881  10.544  -0.187 -0.0693  0.9651  1.1206
   66GLOH    O3 9103   3.976  10.425  -0.049 -0.0488  0.0487 -0.2507
   66GLOH   H01 9104   3.907  10.355  -0.044 -0.2400  0.1728 -1.1651
   67GLOH   H03 9105   4.639   2.712   1.495  2.1310 -0.4519 -1.6645
   67GLOH    O1 9106   4.567   2.723   1.430  0.5759  0.4269  0.1797
   67GLOH    C1 9107   4.566   2.843   1.353  0.4310 -0.5838 -0.9220
   67GLOH   H02 9108   4.579   2.926   1.423  4.1769 -1.3564 -0.6227
   67GLOH   H08 9109   4.474   2.859   1.297 -0.6351  0.1849  0.9878
   67GLOH    C2 9110   4.678   2.856   1.251 -0.3261 -0.5255  0.2185
   67GLOH   H04 9111   4.773   2.851   1.307 -0.8988 -1.0259  1.1644
   67GLOH    O2 9112   4.663   2.760   1.140 -0.0378 -0.4032 -0.0875
   67GLOH   H05 9113   4.587   2.795   1.090 -0.5298  0.4850  1.2569
   67GLOH    C3 9114   4.673   3.004   1.194  0.3920 -0.3187  0.1353
   67GLOH   H06 9115   4.599   3.000   1.114  2.1844 -2.0774 -1.4839
   67GLOH   H07 9116   4.766   3.008   1.139 -0.5192  0.9211 -1.3629
   67GLOH    O3 9117   4.657   3.120   1.273 -0.5730 -0.4083  0.1156
   67GLOH   H01 9118   4.575   3.163   1.241  0.5401  2.4256  0.8616
   68GLOH   H03 9119   3.701   1.890   1.364 -0.1904 -0.3630 -1.7083
   68GLOH    O1 9120   3.796   1.906   1.350 -0.0949  0.1963 -0.5018
   68GLOH    C1 9121   3.829   2.047   1.335  0.0574  0.5146  0.1571
   68GLOH   H02 9122   3.755   2.106   1.389 -0.0161  0.6916 -0.1373
   68GLOH   H08 9123   3.819   2.078   1.231 -0.3514  0.0751  0.0664
   68GLOH    C2 9124   3.973   2.071   1.380  0.6917  0.8275 -0.2660
   68GLOH   H04 9125   4.043   2.013   1.318 -0.0271  1.2743 -1.5058
   68GLOH    O2 9126   4.000   2.211   1.361  0.6081 -0.0823 -0.4295
   68GLOH   H05 9127   4.025   2.229   1.268  2.4244  1.0640  0.2591
   68GLOH    C3 9128   3.993   2.023   1.520  0.2469 -0.6425  0.0591
   68GLOH   H06 9129   3.946   1.925   1.531 -1.8522  0.2745 -0.6677
   68GLOH   H07 9130   3.939   2.093   1.584 -0.8350 -0.6045 -0.8907
   68GLOH    O3 9131   4.130   2.021   1.557  0.7392 -0.2261 -0.1463
   68GLOH   H01 9132   4.174   1.941   1.524  0.3213 -1.8271  3.0615
   69GLOH   H03 9133   4.416   3.053   1.797 -0.0968  1.4781  2.0316
   69GLOH    O1 9134   4.332   3.003   1.807 -0.3094  1.1536 -1.0070
   69GLOH    C1 9135   4.271   3.059   1.923 -0.4784 -0.0834 -0.2692
   69GLOH   H02 9136   4.251   3.162   1.894  2.4012  0.0573 -1.9259
   69GLOH   H08 9137   4.337   3.075   2.008 -0.6867  1.2759 -0.3554
   69GLOH    C2 9138   4.149   2.976   1.964 -0.1917  0.1701 -0.3585
   69GLOH   H04 9139   4.181   2.874   1.990 -3.8383  0.1231  4.6610
   69GLOH    O2 9140   4.082   3.036   2.068 -0.2623 -0.1612  0.4677
   69GLOH   H05 9141   4.127   3.016   2.152  1.4417 -0.0215 -0.3945
   69GLOH    C3 9142   4.043   2.963   1.855  0.5904 -0.3084  0.4246
   69GLOH   H06 9143   4.021   3.061   1.812  0.6663  0.8320  2.9326
   69GLOH   H07 9144   3.947   2.928   1.893  0.3122 -2.7782 -2.2922
   69GLOH    O3 9145   4.082   2.882   1.745 -0.5673 -0.0573  0.2781
   69GLOH   H01 9146   4.139   2.940   1.691 -1.1566 -0.3033 -0.6295
   70GLOH   H03 9147   2.069   1.403   0.976  2.5188 -1.9995 -1.6685
   70GLOH    O1 9148   2.134   1.466   1.012 -0.1605 -0.1548  0.1999
   70GLOH    C1 9149   2.157   1.574   0.917 -0.0160 -0.3901 -0.0883
   70GLOH   H02 9150   2.205   1.656   0.970 -0.3609  0.3738 -0.9594
   70GLOH   H08 9151   2.059   1.608   0.885 -0.6349 -1.1008  1.0082
   70GLOH    C2 9152   2.237   1.548   0.787  0.4414  0.4151  0.0513
   70GLOH   H04 9153   2.189   1.475   0.720 -1.9568  1.3523  0.6845
   70GLOH    O2 9154   2.254   1.678   0.722  0.0921 -0.3360 -0.2109
   70GLOH   H05 9155   2.213   1.660   0.636  0.4369  0.2539 -0.4972
   70GLOH    C3 9156   2.382   1.501   0.814 -0.3778  0.3639 -0.4300
   70GLOH   H06 9157   2.371   1.415   0.881  4.1038  0.7604  0.9492
   70GLOH   H07 9158   2.443   1.566   0.877 -0.7173 -0.8479  1.2073
   70GLOH    O3 9159   2.466   1.463   0.701 -0.0985  0.2242 -0.0301
   70GLOH   H01 9160   2.490   1.548   0.659  2.1171 -0.8133 -0.9855
   71GLOH   H03 9161   2.993   2.430   1.037  0.1599  0.4069  1.9217
   71GLOH    O1 9162   3.046   2.349   1.045  0.1070  0.1503 -0.1137
   71GLOH    C1 9163   3.131   2.375   1.154  0.4841  0.2979 -0.1032
   71GLOH   H02 9164   3.218   2.433   1.124 -0.3025  2.6407  2.0175
   71GLOH   H08 9165   3.164   2.280   1.197 -0.3839  1.0990  2.4017
   71GLOH    C2 9166   3.059   2.454   1.266  0.4117 -0.3554  0.0364
   71GLOH   H04 9167   2.972   2.395   1.300  0.1443 -0.2919 -0.5208
   71GLOH    O2 9168   3.156   2.482   1.378 -0.2062  0.4790  0.0785
   71GLOH   H05 9169   3.232   2.533   1.347  0.1868  0.4022  0.9267
   71GLOH    C3 9170   3.005   2.583   1.200 -0.4476  0.6639  0.0132
   71GLOH   H06 9171   3.087   2.654   1.187  0.8512 -0.6406  0.8064
   71GLOH   H07 9172   2.948   2.638   1.275  2.2765  0.9558  1.9835
   71GLOH    O3 9173   2.926   2.561   1.084  0.2087 -0.0517 -0.6692
   71GLOH   H01 9174   2.875   2.642   1.071  0.1616  0.1207  0.5269
   72GLOH   H03 9175   3.090   2.516   0.662  1.7664  0.9068 -0.4402
   72GLOH    O1 9176   3.053   2.524   0.572 -0.2273  0.2691  0.2960
   72GLOH    C1 9177   2.985   2.403   0.532  0.4348  0.2622  0.3589
   72GLOH   H02 9178   2.905   2.423   0.460  1.8248 -2.1931 -1.9761
   72GLOH   H08 9179   2.941   2.351   0.617  2.4110 -0.6880  0.8116
   72GLOH    C2 9180   3.077   2.297   0.464  0.2968  0.2601 -1.1350
   72GLOH   H04 9181   3.172   2.289   0.518 -1.6350  1.7830  2.6195
   72GLOH    O2 9182   3.020   2.169   0.467 -0.1568  0.3025  0.0949
   72GLOH   H05 9183   2.941   2.180   0.413  1.0694 -0.1900 -1.8342
   72GLOH    C3 9184   3.124   2.323   0.320 -1.0192  0.2494  0.6023
   72GLOH   H06 9185   3.042   2.343   0.251  0.3888  0.4614 -1.0513
   72GLOH   H07 9186   3.177   2.235   0.283  0.3731  1.3896 -0.1398
   72GLOH    O3 9187   3.217   2.439   0.314  0.3447 -0.4334 -0.2700
   72GLOH   H01 9188   3.168   2.523   0.311 -1.2933 -1.3790 -0.7849
   73GLOH   H03 9189   4.517   2.763   1.855  0.4882 -3.8312  0.8471
   73GLOH    O1 9190   4.612   2.777   1.842 -0.1428  0.4387  0.0363
   73GLOH    C1 9191   4.642   2.918   1.839 -0.9439 -0.0694  0.5373
   73GLOH   H02 9192   4.604   2.965   1.929  1.9170  1.9958  0.7479
   73GLOH   H08 9193   4.602   2.970   1.752 -0.7825 -0.5759  0.1532
   73GLOH    C2 9194   4.793   2.937   1.833  0.3883 -0.2767  0.0206
   73GLOH   H04 9195   4.853   2.881   1.906  0.4578  1.2248  1.1402
   73GLOH    O2 9196   4.834   2.889   1.704 -0.6572 -0.2327 -0.4466
   73GLOH   H05 9197   4.829   2.792   1.703  0.3398 -0.2860 -2.4930
   73GLOH    C3 9198   4.820   3.088   1.850  0.1693 -0.4211 -0.3988
   73GLOH   H06 9199   4.928   3.101   1.848  0.2770 -1.4584 -1.7186
   73GLOH   H07 9200   4.785   3.107   1.952 -0.0722 -1.2897 -0.3153
   73GLOH    O3 9201   4.756   3.182   1.762 -0.2861  0.5842  0.1331
   73GLOH   H01 9202   4.782   3.164   1.670 -3.4841 -1.1852 -0.4836
   74GLOH   H03 9203   2.428   1.544  -0.192  0.6873  1.0424 -0.8566
   74GLOH    O1 9204   2.371   1.500  -0.258 -0.2410  0.1927  0.4805
   74GLOH    C1 9205   2.243   1.479  -0.191 -1.0542 -0.6588 -0.1288
   74GLOH   H02 9206   2.240   1.556  -0.114  1.4233 -0.1237 -0.5451
   74GLOH   H08 9207   2.236   1.382  -0.141  1.9453 -2.0124 -2.1886
   74GLOH    C2 9208   2.113   1.509  -0.276 -0.0115  1.5635  0.0158
   74GLOH   H04 9209   2.023   1.510  -0.212 -0.4649 -0.3102 -0.5727
   74GLOH    O2 9210   2.119   1.637  -0.341 -0.0832  0.1408  0.3881
   74GLOH   H05 9211   2.110   1.634  -0.438 -0.4598 -0.4365  0.4441
   74GLOH    C3 9212   2.085   1.393  -0.370  0.1614  0.4171  0.2937
   74GLOH   H06 9213   2.163   1.375  -0.444 -1.0573 -0.8230 -0.7140
   74GLOH   H07 9214   2.001   1.432  -0.428  1.0049  2.9596  0.7317
   74GLOH    O3 9215   2.040   1.266  -0.317 -0.4081 -0.2338 -0.1356
   74GLOH   H01 9216   1.989   1.225  -0.390 -0.8978 -0.5669  0.3931
   75GLOH   H03 9217   4.692   1.513   1.233  0.5957 -2.4067  0.3670
   75GLOH    O1 9218   4.715   1.491   1.141  0.5326 -0.5870 -0.1073
   75GLOH    C1 9219   4.757   1.346   1.135 -0.4990  0.5518 -0.1673
   75GLOH   H02 9220   4.779   1.301   1.232 -1.1490 -0.2067 -0.3699
   75GLOH   H08 9221   4.853   1.344   1.083 -0.9232  1.5336 -1.0166
   75GLOH    C2 9222   4.658   1.246   1.074 -0.3331 -0.0271 -0.2724
   75GLOH   H04 9223   4.715   1.154   1.055 -1.8270 -1.1561  0.6297
   75GLOH    O2 9224   4.546   1.214   1.157 -0.1579  0.1088 -0.3222
   75GLOH   H05 9225   4.495   1.142   1.116 -2.3905  0.0553  2.3598
   75GLOH    C3 9226   4.601   1.312   0.945 -0.4499 -0.5587  1.0019
   75GLOH   H06 9227   4.673   1.382   0.902 -1.1488 -0.5034 -0.1061
   75GLOH   H07 9228   4.533   1.388   0.982  0.7363 -0.1191  2.2938
   75GLOH    O3 9229   4.542   1.220   0.848 -0.4153  0.4793  0.6607
   75GLOH   H01 9230   4.480   1.164   0.899  2.0704 -0.6177  2.5633
   76GLOH   H03 9231   3.042   1.807  -0.114 -0.9075  0.5199 -0.7575
   76GLOH    O1 9232   3.106   1.881  -0.114 -0.4608  0.1479  0.9616
   76GLOH    C1 9233   3.234   1.818  -0.126  0.0011  0.3484 -0.5581
   76GLOH   H02 9234   3.246   1.781  -0.228  1.2179  0.4154 -0.4462
   76GLOH   H08 9235   3.246   1.741  -0.050 -2.6099  0.8682  0.4212
   76GLOH    C2 9236   3.351   1.913  -0.105 -0.7610  0.0194  0.3670
   76GLOH   H04 9237   3.345   1.967  -0.009  0.6830  2.8446 -1.0402
   76GLOH    O2 9238   3.480   1.849  -0.114  0.7059 -0.2149  0.0425
   76GLOH   H05 9239   3.549   1.917  -0.103 -0.8157  1.2569  0.8086
   76GLOH    C3 9240   3.353   2.021  -0.220  0.1029 -0.0557 -0.0484
   76GLOH   H06 9241   3.382   1.985  -0.319 -1.3142  1.0300 -0.8695
   76GLOH   H07 9242   3.419   2.104  -0.193  0.6564 -0.0278 -1.4316
   76GLOH    O3 9243   3.218   2.078  -0.234  0.0355 -0.2078  0.4510
   76GLOH   H01 9244   3.163   2.008  -0.194  0.0379  0.4763  1.6973
   77GLOH   H03 9245   4.773   1.933   1.380  0.5440 -0.7305  0.5997
   77GLOH    O1 9246   4.703   1.870   1.407  0.2138 -0.9375 -0.7091
   77GLOH    C1 9247   4.712   1.846   1.553  0.7185 -0.6809 -0.3079
   77GLOH   H02 9248   4.775   1.921   1.601 -0.4821 -1.0267  1.8478
   77GLOH   H08 9249   4.745   1.746   1.579  0.0530 -0.8242 -0.0129
   77GLOH    C2 9250   4.577   1.856   1.630  0.2523 -0.1424  0.7012
   77GLOH   H04 9251   4.527   1.951   1.609  0.1830 -0.2675  0.2864
   77GLOH    O2 9252   4.483   1.742   1.591  0.1350  0.7264 -0.1416
   77GLOH   H05 9253   4.423   1.777   1.523  1.0669  2.4005 -0.1294
   77GLOH    C3 9254   4.590   1.836   1.784  0.8078 -0.9485  0.3140
   77GLOH   H06 9255   4.650   1.747   1.806  0.2879 -0.9876  1.6463
   77GLOH   H07 9256   4.492   1.813   1.825 -0.3895 -2.9819 -3.5188
   77GLOH    O3 9257   4.654   1.952   1.839  0.5004  0.2383 -0.3894
   77GLOH   H01 9258   4.642   1.945   1.935  1.0647 -2.8800 -0.4985
   78GLOH   H03 9259   3.451   1.775   1.638  0.8954 -0.0147 -0.4264
   78GLOH    O1 9260   3.379   1.834   1.666  0.2728 -0.8867 -0.1606
   78GLOH    C1 9261   3.338   1.928   1.565 -0.3504 -0.0487 -0.7990
   78GLOH   H02 9262   3.278   1.997   1.624  0.0331 -0.7261  0.4148
   78GLOH   H08 9263   3.276   1.877   1.491 -1.1342  0.2110 -0.3317
   78GLOH    C2 9264   3.457   2.002   1.501  0.0591  0.1910 -0.0681
   78GLOH   H04 9265   3.517   2.027   1.590  1.0700 -1.6820 -0.2080
   78GLOH    O2 9266   3.531   1.908   1.420  0.1844 -0.1405 -0.3218
   78GLOH   H05 9267   3.469   1.883   1.350 -0.6007 -1.7894  0.9275
   78GLOH    C3 9268   3.406   2.136   1.431 -0.9028 -0.0418  0.4738
   78GLOH   H06 9269   3.348   2.105   1.344  1.3312  0.4704 -1.2497
   78GLOH   H07 9270   3.495   2.192   1.404 -1.8214  1.3465  0.2818
   78GLOH    O3 9271   3.322   2.217   1.513 -0.0725 -0.4275 -0.4657
   78GLOH   H01 9272   3.236   2.228   1.467  0.1899 -1.4500 -1.2336
   79GLOH   H03 9273   3.195   1.807   0.611  0.6386  0.8254 -1.6803
   79GLOH    O1 9274   3.188   1.718   0.572 -0.2175 -0.1797  0.7325
   79GLOH    C1 9275   3.227   1.720   0.437  0.0423  0.8560 -0.4584
   79GLOH   H02 9276   3.197   1.629   0.385  2.0856 -1.0863  1.6818
   79GLOH   H08 9277   3.335   1.728   0.430  0.0988  0.7942  0.2865
   79GLOH    C2 9278   3.161   1.834   0.360  0.3353 -0.9787  0.2611
   79GLOH   H04 9279   3.054   1.835   0.385 -0.1458  0.4967 -1.7269
   79GLOH    O2 9280   3.215   1.962   0.406 -0.4859 -0.0311 -0.0743
   79GLOH   H05 9281   3.151   2.026   0.442 -0.2467 -0.2979  0.8369
   79GLOH    C3 9282   3.180   1.812   0.213 -0.1354  0.6889  0.1182
   79GLOH   H06 9283   3.146   1.900   0.160 -0.0545 -1.1088 -3.0476
   79GLOH   H07 9284   3.118   1.726   0.186 -1.4948  1.3397  1.1684
   79GLOH    O3 9285   3.319   1.785   0.180  0.2199  0.0981 -0.0168
   79GLOH   H01 9286   3.374   1.864   0.194 -0.9728  1.3741 -2.3019
   80GLOH   H03 9287   2.213   0.747   2.213  0.4772 -1.7856 -0.0321
   80GLOH    O1 9288   2.158   0.716   2.139  0.2456  0.2509 -0.7395
   80GLOH    C1 9289   2.249   0.678   2.032 -0.3076  0.1342 -0.0995
   80GLOH   H02 9290   2.307   0.592   2.066  2.5363  0.6717 -3.3288
   80GLOH   H08 9291   2.313   0.761   2.001  1.8158 -1.4743 -0.1763
   80GLOH    C2 9292   2.174   0.624   1.904 -0.1717 -0.2700 -0.4122
   80GLOH   H04 9293   2.148   0.712   1.843  0.8976  2.5816  3.0774
   80GLOH    O2 9294   2.253   0.539   1.822  0.5162 -0.0285  0.5343
   80GLOH   H05 9295   2.326   0.589   1.781 -0.6857 -0.4379 -2.2200
   80GLOH    C3 9296   2.043   0.556   1.950  0.0592 -0.1729  0.5711
   80GLOH   H06 9297   2.049   0.468   2.014  1.0111  0.8180  1.8482
   80GLOH   H07 9298   1.997   0.524   1.856 -0.7648  1.4300  0.4129
   80GLOH    O3 9299   1.947   0.639   2.010  0.0763 -0.2346  0.9747
   80GLOH   H01 9300   1.990   0.690   2.082 -0.1568  0.2123  0.8026
   81GLOH   H03 9301   4.016   2.282   1.734 -1.2505 -2.6089  1.9839
   81GLOH    O1 9302   3.939   2.342   1.734  0.4207 -0.3283 -0.2418
   81GLOH    C1 9303   3.948   2.429   1.851 -0.1055  0.1373  0.6986
   81GLOH   H02 9304   4.029   2.393   1.915 -0.2958 -1.8855 -0.1375
   81GLOH   H08 9305   3.857   2.424   1.910 -0.7971 -0.4633 -0.4032
   81GLOH    C2 9306   3.977   2.581   1.832 -0.2241 -1.3832  0.0653
   81GLOH   H04 9307   3.976   2.624   1.934 -1.2491 -2.4922  0.5259
   81GLOH    O2 9308   4.098   2.616   1.763  0.0966  0.4639 -0.0446
   81GLOH   H05 9309   4.094   2.708   1.731  1.6210  0.1119 -1.2995
   81GLOH    C3 9310   3.861   2.642   1.753  0.8191 -0.2799 -0.1723
   81GLOH   H06 9311   3.839   2.563   1.682 -2.1543 -1.4374  1.9430
   81GLOH   H07 9312   3.891   2.725   1.688  1.2807  0.4077  0.9013
   81GLOH    O3 9313   3.743   2.672   1.829  0.3048  0.2341 -0.6393
   81GLOH   H01 9314   3.661   2.684   1.778 -1.7364 -0.4355  2.3251
   82GLOH   H03 9315   2.986  10.113   0.921  3.3322  1.4816  0.0226
   82GLOH    O1 9316   3.022  10.025   0.941 -0.2030  0.0024  0.2942
   82GLOH    C1 9317   3.020   9.947   0.819 -0.5220  0.7638  0.6210
   82GLOH   H02 9318   3.072  10.002   0.741 -0.9076 -1.5972 -1.3706
   82GLOH   H08 9319   2.919   9.937   0.779 -0.1241 -1.4495  0.0927
   82GLOH    C2 9320   3.061   9.799   0.828  0.6565 -0.4459  0.2799
   82GLOH   H04 9321   2.987   9.737   0.881  1.6218 -1.2324  0.7319
   82GLOH    O2 9322   3.081   9.750   0.695  0.0622 -0.3743  0.7635
   82GLOH   H05 9323   3.010   9.782   0.637  0.9172 -0.4653 -0.3485
   82GLOH    C3 9324   3.188   9.785   0.908 -0.4517  0.1032  0.0821
   82GLOH   H06 9325   3.270   9.821   0.845 -0.4072 -0.8530 -0.4088
   82GLOH   H07 9326   3.199   9.677   0.916 -2.5855 -0.5310 -4.0117
   82GLOH    O3 9327   3.178   9.853   1.031  0.7813  0.1191  0.6039
   82GLOH   H01 9328   3.127   9.935   1.020 -2.6149 -1.9237  0.2529
   83GLOH   H03 9329   4.716   2.323   1.480  0.4581 -0.8084  0.7991
   83GLOH    O1 9330   4.811   2.343   1.469  0.1797  0.0817 -0.0595
   83GLOH    C1 9331   4.828   2.480   1.516  0.7223 -0.3490  0.9958
   83GLOH   H02 9332   4.825   2.551   1.433 -0.6956 -1.0853  0.3949
   83GLOH   H08 9333   4.934   2.482   1.540  0.4816  0.7546  1.9814
   83GLOH    C2 9334   4.740   2.515   1.636 -0.3495  0.1731  0.1433
   83GLOH   H04 9335   4.772   2.456   1.723 -2.8184 -1.0428  0.2723
   83GLOH    O2 9336   4.736   2.659   1.651  0.4024 -0.2330  0.7356
   83GLOH   H05 9337   4.705   2.689   1.738 -0.6941  0.0075  0.2758
   83GLOH    C3 9338   4.593   2.467   1.604 -0.0170 -0.1200  0.7173
   83GLOH   H06 9339   4.563   2.514   1.511  3.0923  0.7510  0.0786
   83GLOH   H07 9340   4.525   2.501   1.682 -0.5510  1.5227 -0.4526
   83GLOH    O3 9341   4.588   2.323   1.596 -0.0146 -0.4589 -0.5353
   83GLOH   H01 9342   4.562   2.281   1.680 -1.6170  2.2019  0.3452
   84GLOH   H03 9343   2.717   1.917   2.279  1.9759  0.3289  1.0483
   84GLOH    O1 9344   2.772   1.945   2.204  0.4008 -0.0413 -0.2680
   84GLOH    C1 9345   2.909   1.931   2.245  0.3988  0.2528  0.7147
   84GLOH   H02 9346   2.908   1.860   2.328  1.6308  0.0593  0.5682
   84GLOH   H08 9347   2.946   2.024   2.288 -2.5227  2.0403 -0.5105
   84GLOH    C2 9348   3.007   1.887   2.130 -0.1488  0.3520  0.2684
   84GLOH   H04 9349   3.009   1.966   2.053 -0.0919 -0.0988 -0.1925
   84GLOH    O2 9350   3.135   1.860   2.191  0.0381 -0.6583  0.4369
   84GLOH   H05 9351   3.197   1.933   2.175 -0.4369 -0.2397  0.5019
   84GLOH    C3 9352   2.949   1.760   2.065 -1.3366 -0.4319  0.0699
   84GLOH   H06 9353   2.947   1.676   2.134 -1.9424  0.3409  1.0047
   84GLOH   H07 9354   3.017   1.729   1.986  1.0762  0.2253  1.8478
   84GLOH    O3 9355   2.812   1.763   2.015 -0.3437  0.4232  0.2455
   84GLOH   H01 9356   2.763   1.802   2.090  0.1750  1.6469 -0.0303
   85GLOH   H03 9357   3.100   2.226   0.977 -0.9023 -1.0700  0.2194
   85GLOH    O1 9358   3.135   2.145   0.937  0.3695 -0.5009  0.1591
   85GLOH    C1 9359   3.049   2.114   0.822 -0.2103 -0.5254 -0.2743
   85GLOH   H02 9360   3.091   2.172   0.740  1.5041 -0.6300  0.5048
   85GLOH   H08 9361   2.944   2.139   0.830  0.0092  0.2628  0.1924
   85GLOH    C2 9362   3.056   1.967   0.775 -0.2802 -0.6799  0.1863
   85GLOH   H04 9363   2.995   1.961   0.683 -0.4450  1.3117  0.1516
   85GLOH    O2 9364   3.193   1.934   0.737 -0.4609  0.0518  0.0365
   85GLOH   H05 9365   3.259   1.981   0.790 -0.1644  0.1335 -0.4064
   85GLOH    C3 9366   2.992   1.872   0.875 -0.0225 -0.1889 -0.1447
   85GLOH   H06 9367   3.027   1.919   0.967 -1.6745  0.8221 -0.0136
   85GLOH   H07 9368   3.039   1.774   0.872  0.8813  0.1816  1.3519
   85GLOH    O3 9369   2.851   1.875   0.885  0.0144 -0.0123  0.2618
   85GLOH   H01 9370   2.837   1.788   0.928  0.4195 -0.5203 -0.6223
   86GLOH   H03 9371   2.825  10.364   0.384 -1.2276 -1.2571 -0.0911
   86GLOH    O1 9372   2.770  10.419   0.325 -0.1785 -0.1536 -0.0581
   86GLOH    C1 9373   2.837  10.430   0.200 -0.0275 -0.5841  0.3671
   86GLOH   H02 9374   2.924  10.364   0.196  1.3700  1.3190 -1.9943
   86GLOH   H08 9375   2.862  10.535   0.182 -1.5759 -0.2601  0.0661
   86GLOH    C2 9376   2.749  10.382   0.086 -1.1372  0.1949 -0.0982
   86GLOH   H04 9377   2.650  10.428   0.100 -1.7272 -0.7273 -1.1136
   86GLOH    O2 9378   2.805  10.426  -0.039  0.3220  0.2530 -0.6973
   86GLOH   H05 9379   2.864  10.356  -0.071  2.3750  1.4279  0.3725
   86GLOH    C3 9380   2.726  10.228   0.102  0.7110  0.0314 -0.1083
   86GLOH   H06 9381   2.652  10.188   0.033 -0.4855 -0.0733  1.2243
   86GLOH   H07 9382   2.685  10.219   0.202  0.1320  1.7134 -0.1826
   86GLOH    O3 9383   2.849  10.151   0.105  0.3767  0.2077 -0.1641
   86GLOH   H01 9384   2.908  10.174   0.030  0.8562  0.3285  0.2507
   87GLOH   H03 9385   3.048   1.636   0.526 -0.3812 -0.0340  3.3423
   87GLOH    O1 9386   2.962   1.590   0.531 -0.5063 -0.2192  0.4133
   87GLOH    C1 9387   2.984   1.462   0.590  0.0880 -0.4804 -0.2132
   87GLOH   H02 9388   3.055   1.470   0.673  1.2751 -0.6369 -1.1903
   87GLOH   H08 9389   3.038   1.391   0.528  1.5011  0.2964  0.1009
   87GLOH    C2 9390   2.850   1.396   0.636  0.1515 -0.0591 -1.0008
   87GLOH   H04 9391   2.862   1.290   0.663  0.5365 -0.1125 -1.3837
   87GLOH    O2 9392   2.798   1.470   0.748  0.0573  0.1594 -0.3207
   87GLOH   H05 9393   2.712   1.502   0.716  0.5281  1.2842 -0.4753
   87GLOH    C3 9394   2.748   1.410   0.523 -0.1147 -0.3261  0.1498
   87GLOH   H06 9395   2.726   1.515   0.503  1.0589  0.1350  1.2213
   87GLOH   H07 9396   2.654   1.361   0.549 -0.8222  1.9366  2.0651
   87GLOH    O3 9397   2.797   1.350   0.404  0.5221  0.1222  0.5790
   87GLOH   H01 9398   2.833   1.262   0.424  1.2685  0.6390  1.5377
   88GLOH   H03 9399   2.927   2.617   2.202  1.2043 -1.3388 -2.1299
   88GLOH    O1 9400   2.977   2.569   2.271 -0.6419 -0.4473 -0.1150
   88GLOH    C1 9401   2.975   2.431   2.235  0.2586 -0.3765 -0.2430
   88GLOH   H02 9402   3.017   2.404   2.138  0.1355  0.8418 -0.6398
   88GLOH   H08 9403   2.873   2.402   2.213  0.1818 -0.4979  0.2640
   88GLOH    C2 9404   3.026   2.334   2.350 -0.1361  0.0359 -0.0279
   88GLOH   H04 9405   2.962   2.246   2.332 -0.4578  0.4983 -1.2089
   88GLOH    O2 9406   3.165   2.307   2.325 -0.2985 -0.3305 -0.7021
   88GLOH   H05 9407   3.192   2.218   2.355  2.8081 -0.5565 -3.8639
   88GLOH    C3 9408   3.005   2.392   2.492  0.2268 -0.0461 -0.1636
   88GLOH   H06 9409   3.044   2.493   2.504 -1.8808  0.5296  2.2318
   88GLOH   H07 9410   3.066   2.334   2.561 -0.5823 -0.5543  0.1262
   88GLOH    O3 9411   2.865   2.401   2.520 -0.1708 -0.5109 -0.2841
   88GLOH   H01 9412   2.852   2.492   2.550  0.7595  0.7350 -3.4398
   89GLOH   H03 9413   4.073   9.995   0.788 -1.5972  2.0156  1.4038
   89GLOH    O1 9414   4.125   9.976   0.869 -0.3190 -0.2374  0.1296
   89GLOH    C1 9415   4.046   9.903   0.961  0.7901  1.0363 -0.4298
   89GLOH   H02 9416   4.113   9.846   1.025  1.2620  2.8090  0.6928
   89GLOH   H08 9417   3.984   9.835   0.902 -1.2885  1.9120  0.6727
   89GLOH    C2 9418   3.949   9.985   1.043 -0.2144  0.0618 -0.8715
   89GLOH   H04 9419   3.879  10.029   0.972 -2.2049  1.4723  1.8983
   89GLOH    O2 9420   3.878   9.900   1.138 -0.0239  0.4430  0.5229
   89GLOH   H05 9421   3.782   9.908   1.127  0.1255  0.3221 -0.9883
   89GLOH    C3 9422   4.018  10.104   1.113  0.0632 -0.6112  0.4013
   89GLOH   H06 9423   4.068  10.064   1.201 -0.4751 -1.0463  0.5142
   89GLOH   H07 9424   3.934  10.165   1.144 -0.3389  0.2184 -2.2095
   89GLOH    O3 9425   4.104  10.173   1.018  0.5852 -0.3016  0.1078
   89GLOH   H01 9426   4.129  10.101   0.958 -1.7222  0.0294 -1.3454
   90GLOH   H03 9427   2.253   0.815  -0.048  0.9513  0.0011  0.5485
   90GLOH    O1 9428   2.297   0.732  -0.072 -0.2680 -0.3827 -0.3740
   90GLOH    C1 9429   2.221   0.613  -0.037  0.6204  0.1568  0.5234
   90GLOH   H02 9430   2.149   0.590  -0.115 -2.2700  0.5116  2.9881
   90GLOH   H08 9431   2.165   0.622   0.056  0.3036  2.2189  0.1453
   90GLOH    C2 9432   2.305   0.485  -0.009 -0.5815  0.1975 -0.1837
   90GLOH   H04 9433   2.240   0.397  -0.002  1.6237 -1.5011 -0.5471
   90GLOH    O2 9434   2.387   0.459  -0.125  0.1483 -0.4360 -0.0184
   90GLOH   H05 9435   2.329   0.468  -0.203  1.8067 -1.2797 -1.3668
   90GLOH    C3 9436   2.392   0.495   0.122  0.1565  0.1852  0.1527
   90GLOH   H06 9437   2.457   0.578   0.097  0.2870 -0.3084 -1.2034
   90GLOH   H07 9438   2.450   0.403   0.133 -0.2265  0.0954  1.5778
   90GLOH    O3 9439   2.319   0.526   0.242  0.0494  0.0473  0.2724
   90GLOH   H01 9440   2.280   0.441   0.271 -0.8120 -0.0854 -1.1860
   91GLOH   H03 9441   3.855   2.189   2.065 -0.1252  0.7036 -2.4029
   91GLOH    O1 9442   3.763   2.217   2.051 -0.5939  0.2842 -0.2246
   91GLOH    C1 9443   3.717   2.242   2.187  0.7208 -0.1018 -0.2361
   91GLOH   H02 9444   3.647   2.326   2.195  0.4871  0.0205 -3.0390
   91GLOH   H08 9445   3.802   2.270   2.249  0.6323  0.1304 -0.2166
   91GLOH    C2 9446   3.640   2.119   2.243 -0.2986 -0.6090 -0.3870
   91GLOH   H04 9447   3.606   2.141   2.345  2.6286 -1.8435  0.9150
   91GLOH    O2 9448   3.530   2.076   2.158  0.4719  0.0256  0.3088
   91GLOH   H05 9449   3.566   2.012   2.094  2.4437  1.6070 -0.2201
   91GLOH    C3 9450   3.746   2.000   2.257 -0.0073  0.1747  0.1528
   91GLOH   H06 9451   3.808   1.998   2.167 -2.2780 -0.6317 -1.4394
   91GLOH   H07 9452   3.683   1.910   2.260 -0.8397  0.6810 -1.7189
   91GLOH    O3 9453   3.823   2.005   2.379 -0.5615 -0.5284  0.4080
   91GLOH   H01 9454   3.762   1.987   2.453  0.9839  0.9734  2.1004
   92GLOH   H03 9455   4.179   0.894   1.194  0.1959 -0.3380 -0.0367
   92GLOH    O1 9456   4.268   0.916   1.159  0.0653  0.7382  0.3063
   92GLOH    C1 9457   4.324   0.789   1.128 -0.5641 -0.0428 -0.2284
   92GLOH   H02 9458   4.333   0.730   1.219 -1.8992  0.1589  0.0502
   92GLOH   H08 9459   4.426   0.805   1.094 -0.5374  3.2649  1.2158
   92GLOH    C2 9460   4.252   0.701   1.028 -0.7791 -0.0226  0.2195
   92GLOH   H04 9461   4.323   0.623   0.996 -1.4410  0.3284 -2.2792
   92GLOH    O2 9462   4.135   0.633   1.079 -0.5596  0.0446 -0.3273
   92GLOH   H05 9463   4.164   0.541   1.095 -1.5911 -0.1684  0.3635
   92GLOH    C3 9464   4.217   0.774   0.898  0.1922 -0.1063 -0.0590
   92GLOH   H06 9465   4.135   0.845   0.893 -0.8636 -1.3717 -0.9835
   92GLOH   H07 9466   4.186   0.688   0.839  1.7631 -1.6791  1.3348
   92GLOH    O3 9467   4.337   0.829   0.842 -0.1373  0.2976 -0.7864
   92GLOH   H01 9468   4.355   0.917   0.879  1.3391 -1.1824  2.1957
   93GLOH   H03 9469   3.240   1.056   1.863  0.2028  1.0274  0.0061
   93GLOH    O1 9470   3.231   1.080   1.769  0.5783 -0.2690 -0.3789
   93GLOH    C1 9471   3.178   0.972   1.695  0.3064  0.2695 -0.1719
   93GLOH   H02 9472   3.096   0.924   1.749  0.7487 -0.2624  0.0236
   93GLOH   H08 9473   3.258   0.898   1.700  1.4683  1.5955  1.5565
   93GLOH    C2 9474   3.129   1.009   1.553  0.2657  0.7605 -0.4316
   93GLOH   H04 9475   3.200   1.082   1.510 -0.4145  1.5257 -0.2516
   93GLOH    O2 9476   3.111   0.887   1.470  0.0611 -0.1149 -0.3767
   93GLOH   H05 9477   3.195   0.838   1.482  0.5114  0.3459 -1.5612
   93GLOH    C3 9478   2.993   1.079   1.573 -1.2468 -0.8734 -0.7473
   93GLOH   H06 9479   2.977   1.142   1.485 -0.7461 -1.6166 -1.3779
   93GLOH   H07 9480   2.997   1.156   1.650 -1.5162  0.5120 -2.0824
   93GLOH    O3 9481   2.876   1.000   1.592 -0.3738  0.3973 -0.0425
   93GLOH   H01 9482   2.855   0.940   1.519  1.6041  1.2638 -1.3629
   94GLOH   H03 9483   3.897   3.017   0.339 -0.3029  0.3357 -0.0654
   94GLOH    O1 9484   3.902   3.055   0.428 -0.0361  0.0813  0.0289
   94GLOH    C1 9485   3.789   3.017   0.504  0.4641 -0.0018  0.3794
   94GLOH   H02 9486   3.820   3.004   0.608  0.7795  0.3454  0.3322
   94GLOH   H08 9487   3.760   2.918   0.469  2.4800 -0.7317  0.6640
   94GLOH    C2 9488   3.681   3.121   0.490  0.3097  0.0110 -0.0530
   94GLOH   H04 9489   3.688   3.182   0.399 -0.2507  1.3618  0.7932
   94GLOH    O2 9490   3.559   3.043   0.482  0.1013 -0.5369  0.3417
   94GLOH   H05 9491   3.558   2.992   0.564  0.7787  0.3572  0.9230
   94GLOH    C3 9492   3.684   3.227   0.602 -0.4401  0.7600 -0.4130
   94GLOH   H06 9493   3.583   3.269   0.612  0.0207  1.9664 -0.7145
   94GLOH   H07 9494   3.750   3.310   0.578  0.6114  0.2201  0.5988
   94GLOH    O3 9495   3.711   3.159   0.730  0.1561  0.7310  0.2173
   94GLOH   H01 9496   3.801   3.180   0.761  0.4523  1.5554 -1.1880
   95GLOH   H03 9497   3.214   2.599   1.874  0.8637  1.5397  0.5756
   95GLOH    O1 9498   3.288   2.543   1.904 -0.1806 -0.0912  0.1412
   95GLOH    C1 9499   3.401   2.548   1.822  0.0441 -0.1191  0.0758
   95GLOH   H02 9500   3.394   2.481   1.736  1.5884  0.9062 -0.8778
   95GLOH   H08 9501   3.492   2.525   1.876 -1.2077  0.8092  2.6354
   95GLOH    C2 9502   3.425   2.691   1.769 -1.4530 -0.3532  0.2500
   95GLOH   H04 9503   3.444   2.757   1.854  1.6512 -0.1479 -0.5346
   95GLOH    O2 9504   3.545   2.696   1.685  0.5746 -0.1538  0.1195
   95GLOH   H05 9505   3.525   2.733   1.597 -2.2560 -0.6433  0.5302
   95GLOH    C3 9506   3.304   2.740   1.694  0.6503  0.2772 -0.2979
   95GLOH   H06 9507   3.288   2.677   1.606 -2.5553 -1.6524  1.5813
   95GLOH   H07 9508   3.319   2.844   1.663 -1.4170  0.9201  0.7777
   95GLOH    O3 9509   3.177   2.735   1.772 -0.0896 -0.0388 -0.8821
   95GLOH   H01 9510   3.177   2.815   1.827 -0.0181 -1.3464  1.0874
   96GLOH   H03 9511   3.691  10.375   1.942  0.4484  1.5218  0.4231
   96GLOH    O1 9512   3.693  10.386   2.039 -0.1085  0.3469  0.5754
   96GLOH    C1 9513   3.597  10.481   2.073  0.4943 -0.0717 -0.8186
   96GLOH   H02 9514   3.502  10.429   2.056  2.0575 -2.7051 -1.8412
   96GLOH   H08 9515   3.601  10.571   2.013  0.3901  0.4267 -0.0831
   96GLOH    C2 9516   3.606  10.521   2.224 -0.2619  0.3233  0.4086
   96GLOH   H04 9517   3.704  10.566   2.246 -0.0679 -1.2577  2.9773
   96GLOH    O2 9518   3.497  10.617   2.259 -0.9931 -0.0457 -0.0971
   96GLOH   H05 9519   3.508  10.660   2.346 -0.5869  3.2868 -1.7497
   96GLOH    C3 9520   3.590  10.392   2.305 -0.1134 -0.3797  0.2386
   96GLOH   H06 9521   3.576  10.311   2.234 -0.9412 -0.3535  0.3648
   96GLOH   H07 9522   3.501  10.392   2.368 -0.8757  1.0039 -0.8133
   96GLOH    O3 9523   3.705  10.360   2.377 -0.4101  0.3589  0.1729
   96GLOH   H01 9524   3.670  10.328   2.463 -4.6460  0.4149 -1.4239
   97GLOH   H03 9525   3.057   2.761   2.301  0.6525 -1.6730  1.1928
   97GLOH    O1 9526   3.143   2.793   2.267 -0.0621 -0.4889  0.4301
   97GLOH    C1 9527   3.148   2.792   2.121 -0.0615 -0.1062 -0.7486
   97GLOH   H02 9528   3.118   2.691   2.095 -1.0349 -0.2565  0.9267
   97GLOH   H08 9529   3.247   2.802   2.077  0.3403 -1.3763 -0.1461
   97GLOH    C2 9530   3.067   2.912   2.075 -0.2994 -0.0475  0.4232
   97GLOH   H04 9531   3.088   3.001   2.136  0.1501  0.4483 -0.4428
   97GLOH    O2 9532   3.103   2.941   1.939 -0.1173  0.1599 -0.3635
   97GLOH   H05 9533   3.185   2.992   1.941 -1.5824  2.5723  1.8573
   97GLOH    C3 9534   2.915   2.886   2.090 -0.0308 -0.5643  0.7738
   97GLOH   H06 9535   2.866   2.925   2.000  0.2959  0.3732  0.9930
   97GLOH   H07 9536   2.879   2.945   2.175 -0.8512  1.6153 -1.0315
   97GLOH    O3 9537   2.884   2.751   2.117  0.0280  0.5884 -0.0258
   97GLOH   H01 9538   2.905   2.702   2.035  0.2211 -1.2084  1.0602
   98GLOH   H03 9539   3.718   2.319   0.253  1.2628 -0.6993 -0.3036
   98GLOH    O1 9540   3.688   2.226   0.248  0.4486 -0.4670  0.1055
   98GLOH    C1 9541   3.576   2.224   0.340  0.5798 -0.0304 -0.2318
   98GLOH   H02 9542   3.576   2.307   0.411 -1.3773 -0.6502  0.5318
   98GLOH   H08 9543   3.587   2.134   0.402  1.8211 -0.0289 -0.4340
   98GLOH    C2 9544   3.438   2.216   0.270 -0.2131 -0.1708  0.0970
   98GLOH   H04 9545   3.362   2.222   0.350 -0.0187  0.0803  0.2646
   98GLOH    O2 9546   3.419   2.335   0.188 -0.0361  0.1866  0.4046
   98GLOH   H05 9547   3.343   2.388   0.217  0.3157  2.2130 -2.1612
   98GLOH    C3 9548   3.413   2.091   0.195 -0.2770  0.3300  0.3257
   98GLOH   H06 9549   3.468   2.087   0.101 -0.7634  0.9400  0.0211
   98GLOH   H07 9550   3.308   2.085   0.170 -0.5494 -0.4192  1.5748
   98GLOH    O3 9551   3.444   1.981   0.275  0.7355 -0.1645 -0.2133
   98GLOH   H01 9552   3.379   1.970   0.347 -0.5564  0.1272 -1.3177
   99GLOH   H03 9553   4.295   1.463   1.736 -2.2449  0.1630  1.0163
   99GLOH    O1 9554   4.315   1.374   1.769 -0.7955  0.1650  0.1710
   99GLOH    C1 9555   4.425   1.322   1.699  0.7159  0.0288  0.0045
   99GLOH   H02 9556   4.400   1.225   1.655  1.5245  0.1379 -0.7178
   99GLOH   H08 9557   4.504   1.304   1.772  1.1882  0.1010 -0.4854
   99GLOH    C2 9558   4.491   1.410   1.581 -0.2281 -0.6177 -0.3127
   99GLOH   H04 9559   4.411   1.461   1.525  0.7646  0.4832 -0.7312
   99GLOH    O2 9560   4.567   1.512   1.641  0.3301  0.2095 -0.0883
   99GLOH   H05 9561   4.506   1.585   1.663  0.1206  0.0542 -0.1589
   99GLOH    C3 9562   4.568   1.324   1.483 -0.4854  0.1405  0.3244
   99GLOH   H06 9563   4.653   1.283   1.538 -0.9356  3.4531  3.7162
   99GLOH   H07 9564   4.618   1.386   1.409  0.8382 -1.3758 -0.0833
   99GLOH    O3 9565   4.487   1.226   1.414 -0.3653 -0.6462  0.4618
   99GLOH   H01 9566   4.518   1.232   1.322 -0.0317 -1.5883  0.5106
  100GLOH   H03 9567   4.183   0.889   1.766 -1.3958  0.3754 -0.3807
  100GLOH    O1 9568   4.191   0.793   1.774  0.0056  0.5712  0.7175
  100GLOH    C1 9569   4.064   0.737   1.734 -0.3982 -0.2035  0.2946
  100GLOH   H02 9570   4.086   0.631   1.723 -1.1094 -0.5558  1.9889
  100GLOH   H08 9571   4.035   0.783   1.640  1.8345 -0.6277 -0.6340
  100GLOH    C2 9572   3.951   0.748   1.841  0.2154  0.3453 -0.2338
  100GLOH   H04 9573   3.982   0.690   1.929 -0.0221 -0.3996 -0.6299
  100GLOH    O2 9574   3.938   0.886   1.878  0.2426  0.2976 -0.2634
  100GLOH   H05 9575   4.007   0.937   1.833  0.0935  1.2619  0.5608
  100GLOH    C3 9576   3.823   0.690   1.784 -0.1538  0.2763 -0.0523
  100GLOH   H06 9577   3.748   0.700   1.862 -0.0475  1.3217 -0.0770
  100GLOH   H07 9578   3.844   0.584   1.774  1.8986  0.7916 -1.4749
  100GLOH    O3 9579   3.788   0.751   1.657  0.4086 -0.5451  0.1910
  100GLOH   H01 9580   3.791   0.682   1.587  0.5736  0.6111 -0.9603
  101GLOH   H03 9581   3.888   2.286   0.137 -1.4588 -1.0663  0.9102
  101GLOH    O1 9582   3.953   2.256   0.204 -0.3829 -0.0140  0.3642
  101GLOH    C1 9583   4.062   2.196   0.135  0.3371  0.5113 -0.1259
  101GLOH   H02 9584   4.051   2.087   0.137 -1.0925  0.6373 -0.2614
  101GLOH   H08 9585   4.158   2.223   0.179  0.0093 -1.3962  1.8582
  101GLOH    C2 9586   4.067   2.235  -0.012 -1.1308  0.3225 -0.8810
  101GLOH   H04 9587   4.112   2.335  -0.021  1.1590 -0.7031 -1.0547
  101GLOH    O2 9588   4.161   2.146  -0.080  0.0763 -0.2607 -0.3904
  101GLOH   H05 9589   4.150   2.054  -0.049  2.6720 -0.2323  0.7848
  101GLOH    C3 9590   3.928   2.238  -0.078 -0.6562  0.0716  0.0627
  101GLOH   H06 9591   3.891   2.136  -0.086 -1.3169  0.2793  0.4284
  101GLOH   H07 9592   3.945   2.279  -0.177 -1.3164  0.5457  0.1364
  101GLOH    O3 9593   3.834   2.330  -0.011 -0.0601  0.1764 -0.5026
  101GLOH   H01 9594   3.742   2.306  -0.031  0.2794 -1.3290 -0.2833
  102GLOH   H03 9595   3.524   1.853   0.328  1.1323  2.7990  3.3566
  102GLOH    O1 9596   3.583   1.787   0.367  0.2613 -0.2021 -0.0841
  102GLOH    C1 9597   3.688   1.750   0.272 -0.3399 -1.2137 -0.3309
  102GLOH   H02 9598   3.667   1.787   0.172 -0.5303 -0.2794  0.0584
  102GLOH   H08 9599   3.706   1.642   0.271 -0.8628 -1.2976 -0.4084
  102GLOH    C2 9600   3.826   1.810   0.304  0.1872 -0.4359 -0.6389
  102GLOH   H04 9601   3.855   1.791   0.409 -1.6454  1.2039  0.1765
  102GLOH    O2 9602   3.933   1.752   0.232  0.2589 -0.0508  0.3589
  102GLOH   H05 9603   4.015   1.783   0.275  0.1389  0.5929  0.1190
  102GLOH    C3 9604   3.827   1.965   0.281  0.6861  0.2557  0.4833
  102GLOH   H06 9605   3.927   2.003   0.304  1.1821 -1.1851  0.7441
  102GLOH   H07 9606   3.772   2.006   0.366 -1.4692 -1.2718 -0.1472
  102GLOH    O3 9607   3.779   2.011   0.149 -0.6161  0.0938  0.5899
  102GLOH   H01 9608   3.757   2.102   0.177 -0.0359 -0.2982  2.3501
  103GLOH   H03 9609   2.775  10.642   1.619  0.0353 -0.7101 -0.7906
  103GLOH    O1 9610   2.677  10.637   1.622  0.0297 -0.3692 -0.1421
  103GLOH    C1 9611   2.639  10.555   1.507  0.0072 -0.3540 -0.1199
  103GLOH   H02 9612   2.623  10.453   1.542  0.2983 -0.5430 -0.5349
  103GLOH   H08 9613   2.705  10.555   1.420 -0.0603  1.1187 -0.1750
  103GLOH    C2 9614   2.500  10.597   1.451 -0.5928  0.2567 -0.0762
  103GLOH   H04 9615   2.506  10.704   1.427  0.7681  0.1860 -0.0739
  103GLOH    O2 9616   2.473  10.517   1.334  0.4380 -0.8505  0.1395
  103GLOH   H05 9617   2.436  10.583   1.273  0.8874  0.6809  1.4966
  103GLOH    C3 9618   2.392  10.595   1.555 -0.3244 -0.2631 -0.0317
  103GLOH   H06 9619   2.383  10.491   1.585  0.9708 -0.4072 -0.1204
  103GLOH   H07 9620   2.293  10.620   1.517 -2.2932 -2.9995  3.0209
  103GLOH    O3 9621   2.432  10.670   1.670 -0.4097  0.6065  0.1143
  103GLOH   H01 9622   2.529  10.665   1.674 -0.4458 -3.0768 -2.0193
  104GLOH   H03 9623   3.068   1.850   1.286  0.4410  0.7040  1.5343
  104GLOH    O1 9624   2.987   1.902   1.274  0.3678  0.2262 -0.2498
  104GLOH    C1 9625   3.025   2.042   1.296 -0.2429  0.0434 -0.2444
  104GLOH   H02 9626   2.949   2.100   1.244  1.1922 -0.3192 -2.8032
  104GLOH   H08 9627   3.125   2.068   1.261  0.7280 -1.6109  1.1953
  104GLOH    C2 9628   3.018   2.075   1.445  0.2281  0.4570 -0.0480
  104GLOH   H04 9629   3.082   2.003   1.497  2.0378  0.6457 -1.9490
  104GLOH    O2 9630   3.073   2.205   1.475  0.7708  0.9340  0.5278
  104GLOH   H05 9631   3.028   2.232   1.558 -2.9834  0.0817 -1.1300
  104GLOH    C3 9632   2.871   2.072   1.492 -0.6357  0.4677 -0.0245
  104GLOH   H06 9633   2.817   1.986   1.453 -0.8888 -0.7370  2.8910
  104GLOH   H07 9634   2.822   2.153   1.438  0.2003  0.7297 -0.4094
  104GLOH    O3 9635   2.864   2.095   1.637 -0.0621 -0.1306 -0.5220
  104GLOH   H01 9636   2.914   2.029   1.687  0.0398 -0.3091 -0.8552
  105GLOH   H03 9637   3.376   1.481   1.936 -1.6346 -2.5135  0.2430
  105GLOH    O1 9638   3.322   1.518   1.864 -0.0247 -0.2972  0.1109
  105GLOH    C1 9639   3.192   1.459   1.870 -0.2070 -0.1139 -0.6064
  105GLOH   H02 9640   3.131   1.527   1.930 -0.9417  0.2116 -1.7236
  105GLOH   H08 9641   3.194   1.365   1.925 -1.2445  0.7554  0.9637
  105GLOH    C2 9642   3.123   1.440   1.731  0.1231 -0.4460 -0.3525
  105GLOH   H04 9643   3.131   1.536   1.678  3.4289 -1.4809 -1.8251
  105GLOH    O2 9644   3.191   1.335   1.657  0.6497 -0.2008  0.4245
  105GLOH   H05 9645   3.225   1.261   1.711  0.8312  0.0413  0.6416
  105GLOH    C3 9646   2.973   1.408   1.753  0.7153 -0.1818  0.5784
  105GLOH   H06 9647   2.930   1.499   1.795  1.5577 -0.3821  1.9260
  105GLOH   H07 9648   2.968   1.331   1.831  0.9224 -0.7599  0.0301
  105GLOH    O3 9649   2.912   1.367   1.630 -0.3342  0.3902 -0.0538
  105GLOH   H01 9650   2.829   1.322   1.652  1.2455 -1.4217  2.4828
  106GLOH   H03 9651   3.342   2.124   0.915 -1.2061  0.4535 -2.1773
  106GLOH    O1 9652   3.381   2.039   0.884  0.6982  0.2203  0.7001
  106GLOH    C1 9653   3.335   1.944   0.985 -0.6745  0.0348 -0.7279
  106GLOH   H02 9654   3.360   1.845   0.948 -3.0235  0.0120 -2.3589
  106GLOH   H08 9655   3.227   1.945   0.997 -0.6987 -1.2927 -0.7553
  106GLOH    C2 9656   3.389   1.981   1.125  0.0892  0.5471 -0.1575
  106GLOH   H04 9657   3.347   2.078   1.154  0.7538  0.3965  1.3497
  106GLOH    O2 9658   3.349   1.887   1.225 -0.0806  0.1833  1.0783
  106GLOH   H05 9659   3.289   1.824   1.183  1.2480 -0.2843 -0.1569
  106GLOH    C3 9660   3.546   1.991   1.118 -0.4701  0.0140 -0.2451
  106GLOH   H06 9661   3.589   2.007   1.217  1.7956  1.5794 -1.4371
  106GLOH   H07 9662   3.576   2.088   1.077 -1.0676 -0.8888 -2.8753
  106GLOH    O3 9663   3.600   1.877   1.060 -0.3504 -0.0097  0.1049
  106GLOH   H01 9664   3.596   1.801   1.122  0.5166 -0.3168 -0.2135
  107GLOH   H03 9665   2.531   2.301   1.127 -3.3829  1.8636  0.1215
  107GLOH    O1 9666   2.579   2.382   1.101 -0.1114  0.0047  0.0736
  107GLOH    C1 9667   2.688   2.356   1.009  0.5318  0.6532  0.3887
  107GLOH   H02 9668   2.782   2.339   1.061  1.1157  2.4214 -0.0493
  107GLOH   H08 9669   2.689   2.440   0.939  0.3070  1.6053  1.5014
  107GLOH    C2 9670   2.659   2.234   0.917 -0.2583  0.2635  0.3969
  107GLOH   H04 9671   2.552   2.226   0.892 -0.9327  0.4236  3.0512
  107GLOH    O2 9672   2.744   2.250   0.799  0.0803  0.3204 -0.6629
  107GLOH   H05 9673   2.723   2.177   0.739 -0.8646  2.2832 -2.7856
  107GLOH    C3 9674   2.679   2.096   0.992  0.2812  0.2972  0.7594
  107GLOH   H06 9675   2.785   2.073   0.990  0.1052 -0.6283  1.7351
  107GLOH   H07 9676   2.626   2.020   0.934  0.5303  1.2867 -0.7805
  107GLOH    O3 9677   2.618   2.098   1.122  0.3308  0.3392 -0.3493
  107GLOH   H01 9678   2.668   2.036   1.179  2.5765  0.6981 -1.8821
  108GLOH   H03 9679   2.745   1.844   1.900 -3.3800  2.0597  3.0988
  108GLOH    O1 9680   2.707   1.900   1.830 -0.6595 -0.2093 -0.3313
  108GLOH    C1 9681   2.686   1.833   1.707  0.6510 -0.8867  0.3399
  108GLOH   H02 9682   2.706   1.899   1.623  1.5905 -0.0610  1.2083
  108GLOH   H08 9683   2.586   1.791   1.696  0.7829 -1.0675 -0.1866
  108GLOH    C2 9684   2.796   1.726   1.687 -0.1828 -0.2097  0.5188
  108GLOH   H04 9685   2.809   1.685   1.789  0.8055 -1.1450  0.0273
  108GLOH    O2 9686   2.748   1.628   1.596 -0.1020  0.4288 -0.2095
  108GLOH   H05 9687   2.722   1.552   1.650  1.5982 -0.6267 -0.8133
  108GLOH    C3 9688   2.937   1.778   1.649 -0.3570 -0.0075 -0.0466
  108GLOH   H06 9689   2.942   1.811   1.545  2.2088  0.1964  0.1050
  108GLOH   H07 9690   3.014   1.702   1.640 -0.1852  0.4394 -3.1050
  108GLOH    O3 9691   2.983   1.878   1.736 -1.2309  0.3219  0.3677
  108GLOH   H01 9692   3.069   1.857   1.777 -1.0809  0.2477  0.0168
  109GLOH   H03 9693   4.469   2.948   0.577 -2.1080 -2.1875 -0.1219
  109GLOH    O1 9694   4.530   2.901   0.517 -0.2535  0.1323 -0.1330
  109GLOH    C1 9695   4.460   2.785   0.474 -0.0401 -0.0736  0.6238
  109GLOH   H02 9696   4.438   2.789   0.367  1.3350  0.4463  0.3464
  109GLOH   H08 9697   4.365   2.779   0.526  0.9293 -1.3044  2.2921
  109GLOH    C2 9698   4.537   2.661   0.516 -0.8018  0.1658  0.1520
  109GLOH   H04 9699   4.552   2.664   0.625 -3.4316  0.8044  0.5326
  109GLOH    O2 9700   4.459   2.543   0.490 -0.5387 -0.4389  0.1065
  109GLOH   H05 9701   4.414   2.559   0.405 -2.4863  1.0183  1.3907
  109GLOH    C3 9702   4.672   2.659   0.438  0.0933 -0.3753 -0.0364
  109GLOH   H06 9703   4.658   2.576   0.369 -0.2996  0.1681 -0.6178
  109GLOH   H07 9704   4.754   2.638   0.507  0.2959 -0.1749 -0.2162
  109GLOH    O3 9705   4.695   2.786   0.376 -0.2740  0.4360  0.1568
  109GLOH   H01 9706   4.653   2.857   0.427  2.0213  1.8772  0.0791
  110GLOH   H03 9707   3.372   2.504  -0.116 -2.8972 -0.3093  0.9879
  110GLOH    O1 9708   3.402   2.543  -0.032  0.4390 -0.2299 -0.1811
  110GLOH    C1 9709   3.281   2.598   0.021 -0.0494 -0.1663 -0.7773
  110GLOH   H02 9710   3.301   2.634   0.122 -0.6650 -0.0537 -0.6975
  110GLOH   H08 9711   3.209   2.518   0.035 -1.6422  0.4354 -4.9049
  110GLOH    C2 9712   3.218   2.703  -0.075 -0.2653 -0.0802  0.0816
  110GLOH   H04 9713   3.190   2.658  -0.172  0.4286 -1.1224  0.3562
  110GLOH    O2 9714   3.099   2.757  -0.020  0.0142 -0.7077  0.0013
  110GLOH   H05 9715   3.107   2.828   0.046  0.2330 -0.0804 -0.6787
  110GLOH    C3 9716   3.315   2.820  -0.111  1.0241  0.1080 -0.0180
  110GLOH   H06 9717   3.404   2.808  -0.050  3.1584 -1.8361 -3.3875
  110GLOH   H07 9718   3.259   2.911  -0.088 -1.0283 -1.4618  1.4631
  110GLOH    O3 9719   3.361   2.825  -0.246  0.3880  0.3493 -0.3984
  110GLOH   H01 9720   3.283   2.810  -0.303  0.9891  0.0133 -1.1384
  111GLOH   H03 9721   3.385   2.059   2.122  0.8100 -3.0920 -2.0408
  111GLOH    O1 9722   3.289   2.045   2.115  0.0833  0.3351 -0.2656
  111GLOH    C1 9723   3.235   2.165   2.063 -0.2210 -1.0188  0.3069
  111GLOH   H02 9724   3.289   2.248   2.108 -0.8634  0.6545 -1.9040
  111GLOH   H08 9725   3.127   2.180   2.063  0.1722  2.0844 -0.0186
  111GLOH    C2 9726   3.269   2.176   1.909  0.2893 -0.4286 -0.4556
  111GLOH   H04 9727   3.223   2.091   1.857 -1.4169  0.4856 -0.4773
  111GLOH    O2 9728   3.199   2.299   1.860 -0.4009 -0.0800 -0.0322
  111GLOH   H05 9729   3.247   2.384   1.869  0.4866 -0.2844 -2.4335
  111GLOH    C3 9730   3.423   2.183   1.877  0.3497 -0.5812  0.3501
  111GLOH   H06 9731   3.435   2.177   1.768  0.7767  0.5063  0.3367
  111GLOH   H07 9732   3.460   2.089   1.918  0.4745  0.2073  2.0414
  111GLOH    O3 9733   3.497   2.296   1.927 -0.6324  0.0164 -0.0503
  111GLOH   H01 9734   3.539   2.269   2.011 -1.7108 -1.0921  0.1403
  112GLOH   H03 9735   3.696   2.503   0.168  2.4847  2.3274 -0.2285
  112GLOH    O1 9736   3.749   2.463   0.240  0.6512 -0.0835 -0.1679
  112GLOH    C1 9737   3.719   2.544   0.357  0.3427  0.2891  0.2685
  112GLOH   H02 9738   3.777   2.637   0.353  0.1542  0.3944 -0.1224
  112GLOH   H08 9739   3.738   2.495   0.452 -0.2274 -0.6404 -0.0880
  112GLOH    C2 9740   3.574   2.589   0.372  0.3882  0.3365 -0.3761
  112GLOH   H04 9741   3.513   2.500   0.352  2.2528 -0.5882 -2.2042
  112GLOH    O2 9742   3.543   2.654   0.504 -0.0995 -0.1193  0.7725
  112GLOH   H05 9743   3.500   2.586   0.559 -2.2989 -0.9408 -1.8326
  112GLOH    C3 9744   3.541   2.684   0.255  0.4001 -0.0236  0.2256
  112GLOH   H06 9745   3.592   2.780   0.266 -0.2200  0.0543  2.5795
  112GLOH   H07 9746   3.434   2.705   0.264  0.4913  0.5288  0.0388
  112GLOH    O3 9747   3.578   2.624   0.126 -0.2656 -0.2756 -0.7851
  112GLOH   H01 9748   3.497   2.594   0.081 -1.0208  0.9231 -0.2779
  113GLOH   H03 9749   3.383   2.606   1.418 -3.2155  0.1388  0.6206
  113GLOH    O1 9750   3.349   2.631   1.330 -0.2028  0.5906 -0.4959
  113GLOH    C1 9751   3.348   2.772   1.321  0.3283 -0.1869 -0.4107
  113GLOH   H02 9752   3.302   2.828   1.403  3.2028  3.9525 -1.5036
  113GLOH   H08 9753   3.295   2.800   1.230 -1.2306 -0.2380  0.4611
  113GLOH    C2 9754   3.486   2.826   1.316  0.2352 -0.0509 -0.0487
  113GLOH   H04 9755   3.470   2.935   1.309 -1.5716 -0.3573 -1.0300
  113GLOH    O2 9756   3.564   2.793   1.441  0.3787  0.0088  0.2067
  113GLOH   H05 9757   3.597   2.871   1.489  3.6096 -2.1423  1.6351
  113GLOH    C3 9758   3.563   2.787   1.190  0.1129  0.0158  0.0742
  113GLOH   H06 9759   3.588   2.682   1.202  2.1614  0.1946 -2.2193
  113GLOH   H07 9760   3.660   2.838   1.195 -0.0035  0.1155  1.5535
  113GLOH    O3 9761   3.520   2.805   1.057  0.0269  0.3576  0.7789
  113GLOH   H01 9762   3.549   2.892   1.024  1.3374 -0.9075 -1.5521
  114GLOH   H03 9763   3.454   2.670   0.994 -0.8834 -0.6350  1.2061
  114GLOH    O1 9764   3.414   2.586   0.963 -0.4921 -0.3360 -0.1596
  114GLOH    C1 9765   3.520   2.499   0.920 -0.5334  0.0918 -0.3426
  114GLOH   H02 9766   3.586   2.478   1.005  0.7717 -0.5186 -1.4889
  114GLOH   H08 9767   3.591   2.557   0.860 -1.0457  1.7001  0.5802
  114GLOH    C2 9768   3.489   2.375   0.837 -0.0340 -0.1956 -0.5153
  114GLOH   H04 9769   3.578   2.310   0.840 -0.1024 -0.3130 -0.9984
  114GLOH    O2 9770   3.374   2.308   0.906 -0.5716  0.3963  0.2049
  114GLOH   H05 9771   3.380   2.320   1.002 -3.6770  0.7107  0.4209
  114GLOH    C3 9772   3.472   2.406   0.685 -0.4180  0.2283  0.5963
  114GLOH   H06 9773   3.450   2.317   0.626  0.1567 -1.3795  2.7447
  114GLOH   H07 9774   3.570   2.441   0.652  0.0387 -2.7569 -1.4098
  114GLOH    O3 9775   3.385   2.514   0.645 -0.4375  0.0435  0.8422
  114GLOH   H01 9776   3.302   2.514   0.696 -1.3029 -0.2617 -0.5647
  115GLOH   H03 9777   3.877   0.888   0.548 -0.7680 -1.6060  1.5942
  115GLOH    O1 9778   3.789   0.915   0.516  0.3250 -0.0472 -0.2266
  115GLOH    C1 9779   3.687   0.942   0.612  0.0431  0.2133 -0.5196
  115GLOH   H02 9780   3.676   0.865   0.689  1.8088  0.8032  0.3457
  115GLOH   H08 9781   3.593   0.930   0.557 -0.5600  0.4562  0.4468
  115GLOH    C2 9782   3.701   1.083   0.682 -0.3332 -0.5900 -0.6414
  115GLOH   H04 9783   3.805   1.104   0.712  0.2401  1.7299 -3.9355
  115GLOH    O2 9784   3.665   1.189   0.591 -0.0775  0.3232 -0.1834
  115GLOH   H05 9785   3.753   1.210   0.555  1.1003 -0.7594  1.9562
  115GLOH    C3 9786   3.622   1.093   0.815 -0.3666 -0.2525  0.1543
  115GLOH   H06 9787   3.605   1.200   0.831 -0.3188 -0.3614  0.9619
  115GLOH   H07 9788   3.689   1.056   0.892  0.6218 -2.1265 -1.5600
  115GLOH    O3 9789   3.498   1.025   0.811  0.1685 -0.7265 -0.0205
  115GLOH   H01 9790   3.452   1.053   0.729  0.9277 -0.3879 -0.3422
  116GLOH   H03 9791   2.726  10.214   1.804  0.8878 -1.2219 -2.7585
  116GLOH    O1 9792   2.642  10.179   1.770 -0.7269 -0.2123  0.0325
  116GLOH    C1 9793   2.552  10.198   1.874 -0.6314 -0.2018  0.5827
  116GLOH   H02 9794   2.599  10.189   1.972 -4.0438 -2.7413  2.0791
  116GLOH   H08 9795   2.464  10.134   1.870 -0.6531 -0.1152 -0.4469
  116GLOH    C2 9796   2.490  10.333   1.860  0.4796  0.6975 -0.2540
  116GLOH   H04 9797   2.468  10.345   1.753 -0.1033 -3.9765 -0.7664
  116GLOH    O2 9798   2.367  10.334   1.936 -0.2794 -0.0158  0.2709
  116GLOH   H05 9799   2.311  10.401   1.894  0.2904 -0.7032 -1.6459
  116GLOH    C3 9800   2.581  10.446   1.906  0.4905  0.2104 -0.1709
  116GLOH   H06 9801   2.529  10.541   1.896 -2.4393 -0.9212  3.3847
  116GLOH   H07 9802   2.668  10.442   1.840 -1.9679 -1.0092 -3.5184
  116GLOH    O3 9803   2.623  10.434   2.043  0.4141 -0.3210 -0.7532
  116GLOH   H01 9804   2.693  10.502   2.046  0.5568 -0.5201  1.2094
  117GLOH   H03 9805   4.080   1.721   0.838 -0.1264  0.3484 -0.5797
  117GLOH    O1 9806   4.125   1.644   0.876 -0.2681  0.1611 -0.7832
  117GLOH    C1 9807   4.252   1.640   0.806  0.3787 -0.0428  0.4610
  117GLOH   H02 9808   4.230   1.592   0.711 -1.9727  0.0192  0.9556
  117GLOH   H08 9809   4.335   1.596   0.862  0.7581 -1.0624 -0.8770
  117GLOH    C2 9810   4.297   1.780   0.771 -0.2082 -0.0573 -0.0604
  117GLOH   H04 9811   4.322   1.832   0.865 -0.7210  0.0523  0.0166
  117GLOH    O2 9812   4.420   1.756   0.686 -0.2261 -0.2123 -0.1220
  117GLOH   H05 9813   4.455   1.841   0.654  0.8992 -1.0232 -1.0872
  117GLOH    C3 9814   4.193   1.864   0.703  0.0716  0.1893  0.3947
  117GLOH   H06 9815   4.178   1.823   0.603 -3.0731 -0.5332  1.0736
  117GLOH   H07 9816   4.238   1.960   0.679  0.0098 -0.1465 -1.1513
  117GLOH    O3 9817   4.060   1.866   0.769 -0.6486 -0.5102 -0.0049
  117GLOH   H01 9818   3.991   1.900   0.708 -1.3471 -0.6298  0.7204
  118GLOH   H03 9819   3.294   1.631   0.685 -1.9483  0.1404 -0.6273
  118GLOH    O1 9820   3.323   1.548   0.729 -0.3062  1.3496  0.6437
  118GLOH    C1 9821   3.307   1.549   0.870  0.2953  0.0225  0.2117
  118GLOH   H02 9822   3.261   1.454   0.900  1.7090  0.1537  2.9362
  118GLOH   H08 9823   3.231   1.617   0.907  0.5676  0.3829  0.1103
  118GLOH    C2 9824   3.430   1.569   0.955  0.1062 -0.1911 -0.0052
  118GLOH   H04 9825   3.477   1.669   0.950  1.3067 -0.7304  0.3842
  118GLOH    O2 9826   3.402   1.539   1.092  0.3647 -0.1880  0.5278
  118GLOH   H05 9827   3.475   1.574   1.146  2.8847 -2.0209 -1.5677
  118GLOH    C3 9828   3.532   1.468   0.912 -0.0753  0.8269  0.1548
  118GLOH   H06 9829   3.484   1.370   0.912  1.4883  0.0278  1.1814
  118GLOH   H07 9830   3.615   1.465   0.983  0.0195 -0.7846 -0.0072
  118GLOH    O3 9831   3.578   1.500   0.779 -0.3689 -0.4378  0.9176
  118GLOH   H01 9832   3.505   1.528   0.721 -0.0106 -0.5264  0.4210
  119GLOH   H03 9833   4.011   1.328   1.507 -0.8612 -0.9725 -1.0431
  119GLOH    O1 9834   3.977   1.419   1.502  0.3960 -0.4406 -0.0877
  119GLOH    C1 9835   3.950   1.478   1.629  0.1692 -0.2501  0.4021
  119GLOH   H02 9836   4.004   1.571   1.650 -2.5157  1.0443  1.7933
  119GLOH   H08 9837   3.969   1.409   1.711  0.7917 -0.8543 -0.2529
  119GLOH    C2 9838   3.804   1.517   1.623 -0.5577  0.5201  0.6166
  119GLOH   H04 9839   3.741   1.436   1.585 -2.4243  2.8367 -1.3646
  119GLOH    O2 9840   3.767   1.553   1.759  0.2039 -0.1606 -0.4572
  119GLOH   H05 9841   3.814   1.637   1.775 -1.8116  0.9535 -0.2353
  119GLOH    C3 9842   3.782   1.635   1.522  0.5230  0.1968  1.0259
  119GLOH   H06 9843   3.858   1.636   1.444  0.1019  2.1490  0.6125
  119GLOH   H07 9844   3.814   1.728   1.569  0.1745  1.8475 -1.8764
  119GLOH    O3 9845   3.650   1.642   1.467  0.0291 -0.1113  0.4172
  119GLOH   H01 9846   3.579   1.610   1.526 -1.2013 -0.1288 -1.0272
  120GLOH   H03 9847   4.276   2.651   0.210 -1.1032 -0.4093 -0.8399
  120GLOH    O1 9848   4.300   2.594   0.285 -0.0762  0.3013 -0.6144
  120GLOH    C1 9849   4.181   2.571   0.365 -0.4376  0.3007 -0.2741
  120GLOH   H02 9850   4.206   2.531   0.463 -1.9136  0.0074  0.0026
  120GLOH   H08 9851   4.120   2.492   0.320 -1.6709  2.1627 -1.9386
  120GLOH    C2 9852   4.098   2.699   0.383  0.7262 -0.3648 -0.1108
  120GLOH   H04 9853   4.167   2.782   0.404 -0.6193  1.1480 -1.5032
  120GLOH    O2 9854   4.024   2.708   0.259  0.2090  0.7880  0.4920
  120GLOH   H05 9855   3.995   2.798   0.235  0.3658  0.7157  0.0314
  120GLOH    C3 9856   3.994   2.685   0.498 -1.1550 -0.3911 -0.2912
  120GLOH   H06 9857   3.950   2.586   0.485 -1.2415 -0.3181 -0.5437
  120GLOH   H07 9858   3.915   2.760   0.495  0.0760  1.0802  2.0884
  120GLOH    O3 9859   4.062   2.693   0.625  0.3846  0.0735 -0.7667
  120GLOH   H01 9860   4.007   2.647   0.691 -2.1656  2.6246 -0.9939
  121ACOH    H4 9861   4.604   5.505   1.260  1.8316  0.2940 -0.3439
  121ACOH    O2 9862   4.649   5.424   1.290  0.5414 -0.0805  0.6352
  121ACOH    C2 9863   4.624   5.335   1.188 -0.4829 -0.2833 -0.3944
  121ACOH    O1 9864   4.564   5.360   1.086  0.6171 -0.0867  0.1705
  121ACOH    C1 9865   4.671   5.196   1.216 -1.1370 -0.2261 -0.3216
  121ACOH    H1 9866   4.778   5.205   1.238 -1.1385 -1.2548  0.1299
  121ACOH    H2 9867   4.659   5.136   1.126 -0.1128 -2.7595  1.1360
  121ACOH    H3 9868   4.613   5.157   1.300 -0.3296  1.2877  0.9675
  122ACOH    H4 9869   2.803  10.072   1.215  3.9310  1.1078 -2.1267
  122ACOH    O2 9870   2.808   9.975   1.210 -0.8952  0.5748  0.1213
  122ACOH    C2 9871   2.727   9.942   1.107 -0.4805  0.4274  0.3201
  122ACOH    O1 9872   2.659  10.022   1.045 -0.1087 -0.3893 -0.1696
  122ACOH    C1 9873   2.752   9.810   1.048  1.0287 -0.5856 -0.1381
  122ACOH    H1 9874   2.655   9.760   1.047 -0.1397  1.4834  3.0583
  122ACOH    H2 9875   2.819   9.749   1.108  2.1343  0.0134 -0.7570
  122ACOH    H3 9876   2.786   9.816   0.945  1.6751  1.8012  0.1801
  123ACOH    H4 9877   3.595   9.985   2.011 -2.3330  1.4910 -1.1510
  123ACOH    O2 9878   3.608   9.924   1.936 -0.1164  0.0115  0.3585
  123ACOH    C2 9879   3.612   9.986   1.824  0.4991  0.5110  0.7685
  123ACOH    O1 9880   3.628  10.106   1.813 -0.8044  0.3120 -0.2275
  123ACOH    C1 9881   3.588   9.893   1.716  0.0779  0.1134 -0.1165
  123ACOH    H1 9882   3.582   9.952   1.624  0.1626  0.7819  0.3007
  123ACOH    H2 9883   3.493   9.841   1.726 -0.3929  0.5352 -2.0894
  123ACOH    H3 9884   3.667   9.819   1.708 -0.9736 -0.8092 -2.6116
  124ACOH    H4 9885   4.055   0.752   1.145  0.8700 -0.4900  1.9129
  124ACOH    O2 9886   4.023   0.837   1.179  0.2044  0.0603 -0.0422
  124ACOH    C2 9887   3.911   0.874   1.110 -0.4220 -0.4820 -0.3133
  124ACOH    O1 9888   3.883   0.835   0.999  0.3812  0.5748 -0.1275
  124ACOH    C1 9889   3.860   0.991   1.169 -0.0389 -0.3526 -0.0049
  124ACOH    H1 9890   3.825   1.062   1.093 -0.3143  0.0728  0.5199
  124ACOH    H2 9891   3.940   1.048   1.217 -0.7801  1.3582 -0.7378
  124ACOH    H3 9892   3.776   0.963   1.232  0.9390  0.2381  1.6004
  125ACOH    H4 9893   4.453   1.638   0.599  0.7971  1.2161 -0.0396
  125ACOH    O2 9894   4.485   1.561   0.550 -0.5810  0.8649 -0.3963
  125ACOH    C2 9895   4.402   1.561   0.443 -0.0858 -0.4551 -0.2442
  125ACOH    O1 9896   4.322   1.647   0.414  0.2651 -0.3270  0.3935
  125ACOH    C1 9897   4.419   1.438   0.366  0.4257 -0.6602 -0.6809
  125ACOH    H1 9898   4.510   1.391   0.404 -0.8175 -2.0653  0.6448
  125ACOH    H2 9899   4.437   1.466   0.262 -1.9284 -1.1014 -1.2512
  125ACOH    H3 9900   4.335   1.368   0.372 -0.5638  0.2641 -3.0135
  126ACOH    H4 9901   3.495   9.815   2.322  0.0585 -1.9200 -0.2713
  126ACOH    O2 9902   3.565   9.789   2.259  0.4846 -0.3373 -0.4810
  126ACOH    C2 9903   3.669   9.740   2.329  0.6196 -0.0301  0.3357
  126ACOH    O1 9904   3.666   9.714   2.449 -0.0238 -0.7148  0.0550
  126ACOH    C1 9905   3.776   9.704   2.236  0.2906  0.5611  0.5423
  126ACOH    H1 9906   3.741   9.661   2.142  2.3175  1.4828 -0.6613
  126ACOH    H2 9907   3.856   9.646   2.283  1.1590  0.7894 -0.6261
  126ACOH    H3 9908   3.818   9.800   2.207  1.5038 -0.1441 -0.0894
  127ACOH    H4 9909   3.193   2.947   0.549 -0.4766 -2.0962 -0.7428
  127ACOH    O2 9910   3.124   2.947   0.618 -0.2623 -0.0141 -0.4765
  127ACOH    C2 9911   3.164   2.900   0.740 -0.0535 -0.1747  0.4084
  127ACOH    O1 9912   3.280   2.865   0.762 -0.0026 -0.1128 -0.3323
  127ACOH    C1 9913   3.056   2.921   0.836 -0.6092  0.3662  0.1146
  127ACOH    H1 9914   3.070   3.004   0.905  0.3666 -1.3839  2.0494
  127ACOH    H2 9915   3.039   2.828   0.890  1.0954 -1.0497 -1.7425
  127ACOH    H3 9916   2.965   2.942   0.779 -0.3609 -3.2116 -1.7426
  128ACOH    H4 9917   3.909  10.467   1.532  0.6642  1.3890  0.9685
  128ACOH    O2 9918   3.951  10.400   1.589  0.4323  0.5070  0.1167
  128ACOH    C2 9919   4.079  10.376   1.545  0.3820 -0.6574 -0.7878
  128ACOH    O1 9920   4.133  10.417   1.449  0.1712  0.0960  0.0211
  128ACOH    C1 9921   4.147  10.304   1.662  0.3462  0.5338  0.6941
  128ACOH    H1 9922   4.188  10.208   1.630 -0.9142  0.1269  0.2603
  128ACOH    H2 9923   4.080  10.287   1.747 -0.2399 -1.9321 -0.1928
  128ACOH    H3 9924   4.227  10.371   1.690  0.8334 -0.2513  1.1893
  129ACOH    H4 9925   4.289   0.687   1.683 -0.5351  1.0669 -2.9460
  129ACOH    O2 9926   4.347   0.621   1.642 -0.1054 -0.4822  0.0715
  129ACOH    C2 9927   4.346   0.662   1.512  0.1515  0.4781 -0.6440
  129ACOH    O1 9928   4.295   0.766   1.468  0.3444 -0.3396 -0.5683
  129ACOH    C1 9929   4.419   0.559   1.436  0.1721 -0.3800  0.4613
  129ACOH    H1 9930   4.440   0.471   1.497  0.8208 -0.1449  0.5720
  129ACOH    H2 9931   4.512   0.603   1.401 -1.2138  2.1804 -0.1366
  129ACOH    H3 9932   4.354   0.531   1.353 -0.8463  0.2863  1.0231
  130ACOH    H4 9933   4.940   2.299   1.403 -0.6062 -0.0124 -1.1493
  130ACOH    O2 9934   5.024   2.263   1.370  0.0385  0.1454  0.2967
  130ACOH    C2 9935   4.999   2.130   1.376 -0.0217 -0.4551 -0.2438
  130ACOH    O1 9936   4.896   2.067   1.373 -0.0921 -0.0375 -0.2390
  130ACOH    C1 9937   5.117   2.056   1.335  0.2474  0.4183  0.7322
  130ACOH    H1 9938   5.090   1.988   1.254 -0.1534  0.8097  0.5417
  130ACOH    H2 9939   5.155   1.991   1.415  2.9754 -0.0240 -0.8717
  130ACOH    H3 9940   5.201   2.117   1.302  1.0627 -0.3807  1.2856
  131ACOH    H4 9941   2.431  10.109   0.591 -0.1016 -1.6847 -1.9564
  131ACOH    O2 9942   2.412  10.034   0.650  0.4995 -0.2241  0.1715
  131ACOH    C2 9943   2.296   9.989   0.609  0.2804 -0.0844  0.3943
  131ACOH    O1 9944   2.235  10.020   0.510 -0.1998 -0.4107 -0.2898
  131ACOH    C1 9945   2.271   9.872   0.700 -0.7413  0.2402  0.2051
  131ACOH    H1 9946   2.237   9.784   0.646  1.6893  0.6160 -2.0538
  131ACOH    H2 9947   2.194   9.897   0.773  0.6588  1.4060  1.3311
  131ACOH    H3 9948   2.357   9.830   0.752 -0.2601 -0.9408 -1.4984
  132ACOH    H4 9949   3.248   9.762   1.162  0.5368 -0.1103 -0.4001
  132ACOH    O2 9950   3.269   9.689   1.223 -0.4199  0.3963  0.5601
  132ACOH    C2 9951   3.400   9.656   1.195  0.1352 -0.4295  0.0777
  132ACOH    O1 9952   3.473   9.713   1.116 -0.1508 -0.5592 -0.4862
  132ACOH    C1 9953   3.459   9.551   1.286 -0.5215 -0.0766  0.1840
  132ACOH    H1 9954   3.524   9.488   1.224 -0.5272 -1.3453  1.4555
  132ACOH    H2 9955   3.380   9.494   1.335 -0.7605 -0.4497 -0.6214
  132ACOH    H3 9956   3.536   9.592   1.350  0.8316 -2.0921 -0.1119
  133ACOH    H4 9957   2.957   2.695  -0.058 -0.4735  0.4511 -2.4387
  133ACOH    O2 9958   2.874   2.646  -0.058 -0.3486  0.1652  0.2559
  133ACOH    C2 9959   2.813   2.662   0.058 -0.5002  1.1527 -0.3528
  133ACOH    O1 9960   2.851   2.733   0.151  0.2215 -0.0775 -0.1317
  133ACOH    C1 9961   2.688   2.584   0.057  0.1227 -0.3063 -0.3975
  133ACOH    H1 9962   2.677   2.533   0.152 -2.1336  1.3412  0.2628
  133ACOH    H2 9963   2.689   2.517  -0.029 -0.4445 -0.5103 -0.2468
  133ACOH    H3 9964   2.606   2.655   0.057  0.9197  0.6430  1.7140
  134ACOH    H4 9965   2.728   2.091   2.144  2.6449 -1.2259 -0.2211
  134ACOH    O2 9966   2.757   2.176   2.106  0.3352  0.0584  0.8382
  134ACOH    C2 9967   2.659   2.267   2.117 -0.4018 -0.4486  0.5874
  134ACOH    O1 9968   2.571   2.260   2.205  0.0331  0.0280 -0.3280
  134ACOH    C1 9969   2.683   2.370   2.009 -0.5759 -0.1486 -0.2059
  134ACOH    H1 9970   2.592   2.431   2.010  1.0247  2.3113  0.1173
  134ACOH    H2 9971   2.701   2.316   1.916  0.2808 -1.6143  0.7948
  134ACOH    H3 9972   2.769   2.435   2.029 -1.8729  1.4948  0.1825
  135ACOH    H4 9973   3.448   9.666   0.649 -1.0151 -0.1404  0.6040
  135ACOH    O2 9974   3.515   9.617   0.700 -0.2652  0.2612  0.0122
  135ACOH    C2 9975   3.639   9.667   0.662  0.5342  0.4215 -0.4589
  135ACOH    O1 9976   3.656   9.773   0.607  0.1763 -0.5850 -0.2073
  135ACOH    C1 9977   3.751   9.581   0.713  0.5401  0.0633  0.2516
  135ACOH    H1 9978   3.845   9.632   0.689 -0.8891  1.0930 -3.4776
  135ACOH    H2 9979   3.750   9.480   0.674 -1.8141  0.6794 -1.3729
  135ACOH    H3 9980   3.737   9.574   0.821  0.2910 -1.2713  0.1348
  136ACOH    H4 9981   4.700   2.618   1.166  0.1006  0.3657  2.3322
  136ACOH    O2 9982   4.728   2.532   1.201  0.1009 -0.2112  0.9492
  136ACOH    C2 9983   4.663   2.445   1.122  0.1769 -0.0203 -0.1755
  136ACOH    O1 9984   4.553   2.447   1.072  0.3901 -0.3238  0.5166
  136ACOH    C1 9985   4.737   2.316   1.120 -0.3237  0.4853  0.2428
  136ACOH    H1 9986   4.678   2.242   1.065 -0.5934  1.0835 -0.2835
  136ACOH    H2 9987   4.765   2.283   1.220 -0.6749  1.3298  0.6227
  136ACOH    H3 9988   4.821   2.339   1.053 -0.7946  0.1255 -0.4784
  137ACOH    H4 9989   2.957   2.702   1.604 -0.9661 -0.4533 -1.8230
  137ACOH    O2 9990   2.903   2.780   1.625  0.5367 -0.0096  0.6346
  137ACOH    C2 9991   2.925   2.876   1.540  0.1140 -0.2713 -0.1773
  137ACOH    O1 9992   2.973   2.862   1.429 -0.4214 -0.2160 -0.2141
  137ACOH    C1 9993   2.851   2.997   1.580  0.3574  0.4469 -0.3083
  137ACOH    H1 9994   2.780   3.021   1.501 -0.6933 -1.8173 -0.1109
  137ACOH    H2 9995   2.926   3.074   1.599 -0.7973  1.4499  0.2349
  137ACOH    H3 9996   2.800   2.987   1.676  1.8956 -1.0924  0.3802
  138ACOH    H4 9997   4.436  10.488  -0.113  0.2697  1.4765 -0.1766
  138ACOH    O2 9998   4.530  10.470  -0.125  0.1623  0.6905  0.1843
  138ACOH    C2 9999   4.560  10.362  -0.052 -0.5782  0.3917 -0.6606
  138ACOH    O110000   4.488  10.303   0.026 -0.1413  0.0239 -0.6103
  138ACOH    C110001   4.700  10.321  -0.060 -0.5591  0.8039 -0.0338
  138ACOH    H110002   4.719  10.223  -0.104  0.9841  1.0621  0.0275
  138ACOH    H210003   4.748  10.343   0.035 -1.4328  0.2645  0.5449
  138ACOH    H310004   4.747  10.392  -0.127 -3.0754  1.5544 -1.0807
  139ACOH    H410005   4.922   2.040   0.288 -0.0153  0.0938  0.1126
  139ACOH    O210006   4.988   1.972   0.312  0.4962  0.2832 -0.7386
  139ACOH    C210007   4.974   1.932   0.438  0.4137 -0.0437 -1.1435
  139ACOH    O110008   4.888   1.968   0.517  0.5341 -0.0352 -0.3208
  139ACOH    C110009   5.087   1.848   0.482  0.2140  0.0967 -0.2312
  139ACOH    H110010   5.093   1.851   0.590 -0.0848  1.5739 -0.2365
  139ACOH    H210011   5.177   1.883   0.432  0.4202  0.5273  0.4352
  139ACOH    H310012   5.077   1.746   0.446 -2.0247  0.3538 -0.4415
  140ACOH    H410013   3.071   1.273   0.939  0.4290  0.9211  1.1636
  140ACOH    O210014   3.140   1.205   0.934 -0.2454  0.3052  0.2043
  140ACOH    C210015   3.072   1.103   0.869  0.5624 -0.3892 -0.0652
  140ACOH    O110016   2.968   1.111   0.807  0.2937 -0.2459  0.3377
  140ACOH    C110017   3.144   0.974   0.879  0.0531  0.5511  0.1950
  140ACOH    H110018   3.162   0.956   0.985  0.5548 -1.3740 -0.1945
  140ACOH    H210019   3.242   0.987   0.833  0.4157  0.5995  0.9594
  140ACOH    H310020   3.087   0.891   0.840 -0.3342  0.5132  0.8423
  141ACOH    H410021   4.201   2.875   2.356 -2.2731 -2.5020 -2.0145
  141ACOH    O210022   4.135   2.944   2.343 -0.1876 -0.0169 -0.0071
  141ACOH    C210023   4.065   2.954   2.457  0.8167  0.0094 -0.4351
  141ACOH    O110024   4.087   2.903   2.567 -0.3630  0.4969  0.1111
  141ACOH    C110025   3.941   3.033   2.428 -0.0526  0.0110  0.1688
  141ACOH    H110026   3.858   2.964   2.410 -0.6312  0.7271  0.0641
  141ACOH    H210027   3.957   3.103   2.346  1.5897  0.5759  0.9441
  141ACOH    H310028   3.909   3.100   2.508  1.5233  0.1257  0.7093
  142ACOH    H410029   4.121   1.535   1.003 -0.7843 -0.1159 -0.4616
  142ACOH    O210030   4.123   1.477   1.081  0.1361  0.2323 -0.2185
  142ACOH    C210031   4.203   1.370   1.056 -0.1616 -0.1596 -0.3224
  142ACOH    O110032   4.251   1.337   0.945  0.1982 -0.5802  0.0016
  142ACOH    C110033   4.221   1.285   1.177  0.2590  0.7157  0.5373
  142ACOH    H110034   4.200   1.180   1.160  0.3826  0.8544 -0.5219
  142ACOH    H210035   4.159   1.326   1.257 -1.6541  0.0100 -0.5483
  142ACOH    H310036   4.328   1.293   1.200  0.8098  0.7794 -1.9275
  143SOL     OW10037   2.491  10.229   0.484 -0.1738 -0.3245  0.4629
  143SOL    HW110038   2.584  10.238   0.519 -0.0802  0.4272  0.0286
  143SOL    HW210039   2.494  10.200   0.388 -0.3876 -0.5579  0.5279
  144SOL     OW10040   2.512   1.010   1.200 -0.1467 -0.6797 -0.1669
  144SOL    HW110041   2.440   0.941   1.194  0.3998 -1.2492 -0.1741
  144SOL    HW210042   2.596   0.976   1.157  0.3461 -0.3050  0.4827
  145SOL     OW10043   2.618   1.638   1.360 -0.4291 -0.7149 -0.5195
  145SOL    HW110044   2.629   1.540   1.345 -1.0883 -1.0734  1.2274
  145SOL    HW210045   2.646   1.662   1.453 -0.5748  0.6996 -0.8212
  146SOL     OW10046   2.954   1.473   0.232 -0.4558 -0.4940  0.3702
  146SOL    HW110047   2.902   1.416   0.296  0.3378 -1.2436  0.3667
  146SOL    HW210048   3.039   1.426   0.208 -0.6040 -0.0825 -0.9993
  147SOL     OW10049   3.755   1.545   0.479 -0.0356 -0.6568 -0.3138
  147SOL    HW110050   3.736   1.454   0.515  0.1462 -0.9164 -0.8825
  147SOL    HW210051   3.708   1.558   0.392 -1.1966  0.2979  0.4382
  148SOL     OW10052   4.579   5.619   0.972 -0.2989 -0.6189 -0.0699
  148SOL    HW110053   4.556   5.619   0.874  2.5121  0.7821 -0.7873
  148SOL    HW210054   4.599   5.526   1.002 -1.7323 -1.1392 -0.6693
  149SOL     OW10055   4.209   1.509   0.089  0.0492 -0.4780  0.3870
  149SOL    HW110056   4.303   1.543   0.092 -0.0563 -0.3035  2.9809
  149SOL    HW210057   4.182   1.479   0.180 -1.7397 -2.4440 -0.7651
  150SOL     OW10058   3.442   1.507   2.437 -0.1139  0.3047 -0.1062
  150SOL    HW110059   3.466   1.547   2.525 -1.0268 -0.0191  0.2994
  150SOL    HW210060   3.386   1.571   2.385 -1.3345 -0.3081  0.4252
  151SOL     OW10061   2.905   1.583   1.390  0.7644 -0.0376  0.1641
  151SOL    HW110062   2.976   1.529   1.436  1.1533  1.5634  1.4896
  151SOL    HW210063   2.843   1.621   1.459 -1.8927 -2.0465 -1.0167
  152SOL     OW10064   3.938   3.405   2.191  0.1778 -0.2934 -0.2788
  152SOL    HW110065   4.004   3.445   2.254 -0.5180 -1.6769  1.3602
  152SOL    HW210066   3.958   3.435   2.098  0.9900  2.0862  0.6346
  153SOL     OW10067   4.438   2.295   0.372  0.6581 -0.3858 -0.2281
  153SOL    HW110068   4.349   2.271   0.410  1.0554 -1.8168 -0.1601
  153SOL    HW210069   4.474   2.376   0.418 -0.1974 -0.3388  0.3695
  154SOL     OW10070   3.475   2.458   1.490 -0.5795  0.0040 -0.4966
  154SOL    HW110071   3.404   2.389   1.478 -1.4948  0.6889  0.8873
  154SOL    HW210072   3.543   2.426   1.556 -0.2410 -0.1584 -0.9224
  155SOL     OW10073   3.148   2.924   0.177 -0.4759 -0.2355 -0.5426
  155SOL    HW110074   3.220   2.907   0.244  0.1860  0.4098 -1.0794
  155SOL    HW210075   3.104   3.012   0.197  1.0690  0.9170 -2.1289
  156SOL     OW10076   4.210   1.744   1.931  0.2048  0.1148  0.0046
  156SOL    HW110077   4.300   1.713   1.961  0.0338 -0.0872  0.3142
  156SOL    HW210078   4.139   1.691   1.977 -0.0641 -0.3012 -0.8714
  157SOL     OW10079   2.501   1.010   1.503  0.2540  0.5357 -0.3922
  157SOL    HW110080   2.416   0.987   1.551  0.7602 -1.1733 -0.2655
  157SOL    HW210081   2.480   1.035   1.409 -0.2749 -1.5053 -0.8429
  158SOL     OW10082   3.794  10.298   0.231 -0.2545 -0.3759  0.1950
  158SOL    HW110083   3.800  10.396   0.250 -2.7972 -0.0633 -0.4146
  158SOL    HW210084   3.723  10.257   0.289 -1.0418 -1.3266 -1.3776
  159SOL     OW10085   3.181   1.707   1.144  0.1293 -0.3278 -0.1252
  159SOL    HW110086   3.085   1.688   1.121  0.0549 -1.1233  0.7677
  159SOL    HW210087   3.231   1.621   1.149  0.6776  0.0148  0.3186
  160SOL     OW10088   3.454  10.106   0.292 -0.0032 -0.1283  0.5382
  160SOL    HW110089   3.469  10.037   0.222  0.5497  0.7699 -0.2438
  160SOL    HW210090   3.359  10.138   0.287 -1.1558 -2.9467  2.8713
  161SOL     OW10091   3.915   1.982   0.576 -0.3405 -0.0059  0.1052
  161SOL    HW110092   3.843   2.019   0.635 -1.0350 -0.0908 -0.6692
  161SOL    HW210093   3.962   2.057   0.530 -1.0817 -0.0176 -0.6955
  162SOL     OW10094   1.965   1.150   2.146 -0.2153  0.6076  0.1721
  162SOL    HW110095   1.895   1.149   2.075  1.7775 -0.6507 -1.8485
  162SOL    HW210096   2.055   1.163   2.105  1.0978 -1.0337  2.3649
  163SOL     OW10097   3.617   2.850  -0.221  0.3289 -0.1491  1.1574
  163SOL    HW110098   3.652   2.908  -0.295  1.3980 -0.5014  1.3803
  163SOL    HW210099   3.517   2.855  -0.220  0.1211 -2.1951 -2.0116
  164SOL     OW10100   3.626   1.038   2.382  0.7336 -0.2020 -0.1489
  164SOL    HW110101   3.703   0.995   2.337 -1.1765 -0.7080 -3.0495
  164SOL    HW210102   3.637   1.137   2.382  0.2466 -0.1347 -2.7306
  165SOL     OW10103   3.826   3.166   1.306 -1.1569 -0.5934 -0.0978
  165SOL    HW110104   3.875   3.161   1.219  1.2344  0.1925  1.1360
  165SOL    HW210105   3.815   3.074   1.343 -0.7833 -0.7996 -0.4926
  166SOL     OW10106   2.744   2.137  -0.117 -0.6239 -0.5275  0.5005
  166SOL    HW110107   2.778   2.230  -0.128 -0.9448 -0.4804 -0.1016
  166SOL    HW210108   2.650   2.131  -0.151  0.0670 -1.5314 -1.2896
  167SOL     OW10109   3.999  10.061   0.634 -0.3409 -0.1690 -0.1655
  167SOL    HW110110   4.078  10.090   0.581 -0.7803  1.8067  0.2088
  167SOL    HW210111   3.936  10.009   0.576  0.4927 -0.4174 -0.8507
  168SOL     OW10112   2.678   1.612   2.291 -0.0713 -0.0184  0.0205
  168SOL    HW110113   2.719   1.695   2.327 -2.2449 -0.0757  2.8230
  168SOL    HW210114   2.707   1.534   2.347  1.0124 -0.9809 -1.8588
  169SOL     OW10115   4.269   1.620   1.709 -0.2704 -0.4410  0.1740
  169SOL    HW110116   4.222   1.666   1.784  2.1676 -0.6651  1.8890
  169SOL    HW210117   4.336   1.682   1.668  0.2856 -1.1782 -0.0514
  170SOL     OW10118   3.639   2.355   1.678  0.0364  0.2626  0.2678
  170SOL    HW110119   3.723   2.304   1.699  1.6637  2.3880 -0.9122
  170SOL    HW210120   3.574   2.344   1.753  1.7400 -0.6377  1.6531
  171SOL     OW10121   3.970  10.432   2.157  0.3315 -0.2723 -0.1402
  171SOL    HW110122   3.870  10.437   2.153  0.0258 -4.2887  0.0947
  171SOL    HW210123   4.004  10.374   2.083  2.0716 -2.2541  2.0843
  172SOL     OW10124   3.865   1.309   2.180 -0.0385  0.3028  0.0323
  172SOL    HW110125   3.886   1.211   2.183  0.6473  0.4765  0.9902
  172SOL    HW210126   3.849   1.336   2.085  1.2017 -0.4454 -0.3994
  173SOL     OW10127   3.343   0.734   1.490 -0.2734  0.4807 -0.2083
  173SOL    HW110128   3.329   0.642   1.453  2.1170  0.2739 -0.6967
  173SOL    HW210129   3.435   0.766   1.467 -0.7284  2.6285  0.7689
  174SOL     OW10130   3.133  10.057   2.331 -0.4100  0.3825 -0.0118
  174SOL    HW110131   3.202  10.130   2.332 -1.4653  1.4140 -0.5320
  174SOL    HW210132   3.071  10.072   2.254 -0.7869 -0.9361  0.0335
  175SOL     OW10133   4.024   1.152   1.528  0.2076  0.0885 -0.2376
  175SOL    HW110134   4.094   1.109   1.471  0.6111 -1.4802  1.4371
  175SOL    HW210135   3.937   1.104   1.516  0.2734 -0.1923  0.4138
  176SOL     OW10136   2.361  10.036   0.175  0.3977  0.7694  0.2222
  176SOL    HW110137   2.443   9.979   0.166  1.2643  1.7343  1.7574
  176SOL    HW210138   2.287   9.982   0.216  1.0460  0.5715  1.1571
  177SOL     OW10139   4.040   2.249   1.100 -0.1836 -0.1149 -0.3717
  177SOL    HW110140   4.134   2.279   1.087  0.3142 -0.2825  2.5600
  177SOL    HW210141   4.026   2.161   1.055  1.3435 -0.5497 -0.0061
  178SOL     OW10142   2.721   0.848   1.400 -0.2376 -0.5503 -0.0289
  178SOL    HW110143   2.647   0.903   1.364 -0.1576  0.6098  1.5137
  178SOL    HW210144   2.692   0.806   1.486  0.1963 -1.7529 -0.4585
  179SOL     OW10145   3.321   2.917   0.433 -0.1322  0.2433  0.2758
  179SOL    HW110146   3.335   2.820   0.451  0.8261 -0.3739 -3.2793
  179SOL    HW210147   3.410   2.963   0.432 -0.3338  0.6144 -0.7876
  180SOL     OW10148   3.824   1.475   0.779  0.4818 -0.3708 -0.3519
  180SOL    HW110149   3.727   1.490   0.757  0.3088 -0.1476  0.5563
  180SOL    HW210150   3.878   1.486   0.695 -0.2095  0.1459 -0.7443
  181SOL     OW10151   4.722   1.471   0.625 -0.8208 -0.0604 -0.2477
  181SOL    HW110152   4.727   1.445   0.721 -0.9993  2.0663  0.3636
  181SOL    HW210153   4.628   1.497   0.602  0.0019  3.5111  0.1533
  182SOL     OW10154   3.705   2.715   2.090 -0.6807  0.0788  0.1315
  182SOL    HW110155   3.740   2.714   1.996 -1.0942 -0.7581 -0.0183
  182SOL    HW210156   3.619   2.664   2.094  0.2702 -1.4513  1.3289
  183SOL     OW10157   2.115   0.988   2.352  0.0245  0.2321 -0.1933
  183SOL    HW110158   2.078   1.045   2.278 -0.0455  0.4632  0.0193
  183SOL    HW210159   2.078   1.019   2.439  1.7960  1.3531  0.1844
  184SOL     OW10160   3.385  10.408   1.806  0.4225 -0.2162  0.6149
  184SOL    HW110161   3.365  10.505   1.793 -0.8981 -0.4550  0.7387
  184SOL    HW210162   3.476  10.387   1.771  0.6122  1.0164  0.3614
  185SOL     OW10163   4.046   1.090   0.796  0.1007 -0.9263  0.0279
  185SOL    HW110164   4.088   1.163   0.742 -0.8759 -0.2279  0.1991
  185SOL    HW210165   4.015   1.127   0.884 -0.0153 -1.6493  0.2967
  186SOL     OW10166   3.744   1.232  -0.056  0.2974  0.4059 -0.2477
  186SOL    HW110167   3.705   1.236   0.036  0.4411  0.7142 -0.2014
  186SOL    HW210168   3.720   1.144  -0.098  1.9268 -0.6216  0.8578
  187SOL     OW10169   4.678   1.909  -0.057 -0.2285 -0.1915 -0.6209
  187SOL    HW110170   4.583   1.935  -0.075 -0.2769  0.8182  0.9976
  187SOL    HW210171   4.734   1.991  -0.048  0.5935 -0.7585 -0.4703
  188SOL     OW10172   3.768   9.913   0.188  0.1359  0.3521 -0.7181
  188SOL    HW110173   3.788   9.918   0.286  0.5721 -0.4488 -0.7622
  188SOL    HW210174   3.833   9.969   0.138 -0.6134  1.4484 -0.4856
  189SOL     OW10175   3.560  10.528   0.818  0.0292  0.0406 -0.2885
  189SOL    HW110176   3.567  10.428   0.810 -2.0082 -0.2291  0.7792
  189SOL    HW210177   3.651  10.568   0.817  0.9231 -1.9088  0.1741
  190SOL     OW10178   2.296   2.097   2.272  0.0878 -0.0128  0.2361
  190SOL    HW110179   2.287   2.195   2.256  1.5284  0.4566  2.0890
  190SOL    HW210180   2.334   2.054   2.190  0.3792  1.1422 -0.2515
  191SOL     OW10181   2.039   1.223   0.152 -0.2079  0.5544  0.1566
  191SOL    HW110182   2.022   1.320   0.167 -0.4143  0.6422 -0.6250
  191SOL    HW210183   2.084   1.184   0.232 -0.8432  1.1223  0.7906
  192SOL     OW10184   3.564   2.870   0.678  0.1503  0.3995  0.0360
  192SOL    HW110185   3.554   2.793   0.616 -1.0942  0.0380  0.6832
  192SOL    HW210186   3.480   2.882   0.731  0.7924  1.4034  0.8454
  193SOL     OW10187   3.410   3.003   2.194 -0.1541  0.1249 -0.1991
  193SOL    HW110188   3.507   3.021   2.183 -0.4305  0.7533 -1.7308
  193SOL    HW210189   3.395   2.952   2.278  1.4790  0.1550  0.1254
  194SOL     OW10190   2.135   1.172   1.208  0.0086 -0.1931  0.2980
  194SOL    HW110191   2.175   1.234   1.141  2.4112 -0.9056  1.0405
  194SOL    HW210192   2.116   1.222   1.292  1.7659 -0.4171  0.8323
  195SOL     OW10193   3.987   3.515   1.950 -0.3724 -0.2467 -0.3602
  195SOL    HW110194   4.081   3.495   1.921 -0.5711  0.9941 -1.9184
  195SOL    HW210195   3.924   3.500   1.874 -1.5152 -1.4627  0.7916
  196SOL     OW10196   2.974   0.948   1.193 -0.1349 -0.4577 -0.2117
  196SOL    HW110197   2.967   1.048   1.198  0.1086 -0.4744  0.6197
  196SOL    HW210198   3.058   0.919   1.239  0.0699 -1.0058 -0.9362
  197SOL     OW10199   2.392   1.917   0.759  0.0328  0.8109 -0.2995
  197SOL    HW110200   2.391   1.943   0.855  1.4944  1.4348 -0.4419
  197SOL    HW210201   2.335   1.836   0.746  0.0240  0.5709  1.1245
  198SOL     OW10202   3.113   2.683   0.338  0.1488 -0.0429  0.1034
  198SOL    HW110203   3.082   2.643   0.425  0.6730 -0.0496  0.2949
  198SOL    HW210204   3.049   2.754   0.309 -0.2394 -0.3107  0.2965
  199SOL     OW10205   4.209  10.377   1.153  0.2769  0.4591 -0.2363
  199SOL    HW110206   4.186  10.377   1.250 -0.2488  2.6224 -0.3286
  199SOL    HW210207   4.165  10.298   1.109  0.2199 -0.3354  1.1984
  200SOL     OW10208   4.155   1.293   0.609 -0.3314 -0.1384 -0.2089
  200SOL    HW110209   4.109   1.379   0.589 -3.0800 -1.5956 -0.4563
  200SOL    HW210210   4.237   1.285   0.553  0.7256  2.9026  0.8238
  201SOL     OW10211   3.347   0.845   1.215  0.0155  0.1447  0.3721
  201SOL    HW110212   3.400   0.815   1.136 -0.2450 -1.0653  0.6523
  201SOL    HW210213   3.394   0.819   1.299  0.3408  1.5117  0.6364
  202SOL     OW10214   2.352   1.953   2.052  0.2717 -0.0014 -0.1561
  202SOL    HW110215   2.409   1.978   1.974  1.6115 -0.5370  0.6380
  202SOL    HW210216   2.390   1.872   2.097 -0.1285  0.6599  1.4121
  203SOL     OW10217   3.622   9.707   0.124  0.8804  0.0983  0.1575
  203SOL    HW110218   3.644   9.677   0.031  2.6548 -2.2633  1.2630
  203SOL    HW210219   3.689   9.775   0.155  1.3768 -0.4733  0.3469
  204SOL     OW10220   4.375   1.060   0.956 -0.2609  0.5841  0.4090
  204SOL    HW110221   4.309   1.130   0.932 -0.9274 -0.1478  0.0674
  204SOL    HW210222   4.337   1.000   1.026 -0.6484 -0.8812 -1.0279
  205SOL     OW10223   4.189   1.196   2.220 -0.0836 -0.2608 -0.3153
  205SOL    HW110224   4.239   1.176   2.305 -0.7115  2.2033  0.6840
  205SOL    HW210225   4.101   1.149   2.222 -0.1168 -0.1821  0.4279
  206SOL     OW10226   4.395   2.008   0.166  0.3281 -0.1445 -0.0280
  206SOL    HW110227   4.420   2.078   0.099  1.3275 -1.3681 -0.9518
  206SOL    HW210228   4.454   2.016   0.246 -0.7514  1.2041  0.6581
  207SOL     OW10229   2.524   1.697   0.582  0.3557  0.6424  0.0432
  207SOL    HW110230   2.451   1.749   0.626  0.2135  0.9840 -0.5924
  207SOL    HW210231   2.579   1.758   0.525 -1.0127 -0.2509 -2.2636
  208SOL     OW10232   3.751   0.906  -0.056 -0.2402 -0.8072  0.3650
  208SOL    HW110233   3.824   0.894   0.011  0.7867  1.2277 -0.3482
  208SOL    HW210234   3.777   0.860  -0.141  0.5047  0.4164 -0.0824
  209SOL     OW10235   3.605   1.681   1.218  0.1459  0.2395  0.5231
  209SOL    HW110236   3.618   1.676   1.317 -0.8115 -0.1920  0.6392
  209SOL    HW210237   3.680   1.633   1.172  1.5101  1.8896  0.9644
  210SOL     OW10238   3.391   1.084   0.592 -0.0754 -0.1184  0.3718
  210SOL    HW110239   3.405   1.048   0.499  2.1349  0.1889  0.5516
  210SOL    HW210240   3.336   1.167   0.588 -1.7393 -1.2319 -0.4475
  211SOL     OW10241   4.028   1.506   0.519  0.1158  0.5516 -0.9420
  211SOL    HW110242   3.930   1.518   0.500  0.1913  1.8093 -0.5357
  211SOL    HW210243   4.073   1.595   0.522  1.6569 -0.1154 -3.0877
  212SOL     OW10244   3.093  10.104   1.890 -0.0215  0.0407  0.3863
  212SOL    HW110245   3.154  10.055   1.828 -1.0504  0.3975 -0.9236
  212SOL    HW210246   3.146  10.172   1.942  0.6403  0.5845 -0.9758
  213SOL     OW10247   3.281  10.289   2.038 -0.3494 -0.1453  0.2528
  213SOL    HW110248   3.336  10.299   1.955  0.6617 -0.1637  0.9042
  213SOL    HW210249   3.244  10.378   2.064 -0.9100 -0.1926 -0.3756
  214SOL     OW10250   2.980  10.130   2.128  0.1314  0.6360  0.2762
  214SOL    HW110251   3.006  10.109   2.033  1.8449 -2.4179  1.3403
  214SOL    HW210252   2.891  10.089   2.147 -0.0771  0.9919  0.0603
  215SOL     OW10253   3.956   2.446   1.453  0.2868 -0.0179 -0.7595
  215SOL    HW110254   3.946   2.425   1.550  2.2741  2.2358 -0.0226
  215SOL    HW210255   3.978   2.363   1.403  1.3178 -0.8387  1.0320
  216SOL     OW10256   2.081   1.487   0.185  0.2231 -0.2956  0.3347
  216SOL    HW110257   2.176   1.472   0.211  0.4868 -0.4863 -0.7166
  216SOL    HW210258   2.068   1.582   0.157 -0.0811 -0.0675  1.2133
  217SOL     OW10259   4.097   1.315  -0.081 -0.4279 -0.2458 -0.4806
  217SOL    HW110260   4.021   1.345  -0.138 -1.6611 -0.6157  0.9504
  217SOL    HW210261   4.120   1.387  -0.015 -0.9896 -0.9980  0.5443
  218SOL     OW10262   3.853   2.643   2.442 -0.7404  0.3998  0.0530
  218SOL    HW110263   3.793   2.720   2.420 -0.5542  0.9708  1.5081
  218SOL    HW210264   3.854   2.628   2.541  1.9115  0.7284  0.1197
  219SOL     OW10265   2.579   1.126   0.375  0.1018  0.6752 -0.4188
  219SOL    HW110266   2.616   1.086   0.459  0.8483  0.4051 -0.8739
  219SOL    HW210267   2.579   1.058   0.302  1.8740  1.6475 -1.3506
  220SOL     OW10268   3.580   2.297  -0.046 -0.2372  0.1852  0.7692
  220SOL    HW110269   3.523   2.304   0.036 -0.1397 -0.5768  0.9072
  220SOL    HW210270   3.540   2.353  -0.119 -0.6423  0.4079  1.1597
  221SOL     OW10271   2.925   2.372   1.811  0.1616  0.1249 -0.2826
  221SOL    HW110272   3.012   2.323   1.812  0.2147  0.2338  0.2340
  221SOL    HW210273   2.873   2.345   1.729  0.5851 -0.0979 -0.4805
  222SOL     OW10274   4.373   2.298   1.385  1.0546  0.1862 -0.0253
  222SOL    HW110275   4.453   2.317   1.442 -1.4681  1.4015  3.2276
  222SOL    HW210276   4.293   2.283   1.442 -1.3679  0.2537 -3.2247
  223SOL     OW10277   2.668   1.021   0.622  0.1068  0.1428  0.3168
  223SOL    HW110278   2.644   0.925   0.637  0.9595 -0.2328 -0.6534
  223SOL    HW210279   2.640   1.075   0.701 -0.0653 -0.9632  1.0238
  224SOL     OW10280   2.990   0.889  -0.036  0.1580  0.0338 -0.6279
  224SOL    HW110281   3.054   0.937  -0.095 -0.9778 -1.8539 -3.4932
  224SOL    HW210282   2.896   0.906  -0.068 -0.5532 -0.3632  1.1519
  225SOL     OW10283   3.344   0.677   1.768  0.1418 -0.2749 -0.4149
  225SOL    HW110284   3.330   0.687   1.669  0.8507 -0.0221 -0.4929
  225SOL    HW210285   3.423   0.731   1.795  0.8920 -1.5868  0.0381
  226SOL     OW10286   4.427   1.976  -0.130  0.4239  0.4015  0.1957
  226SOL    HW110287   4.434   2.069  -0.096 -0.5814 -0.1851  2.1147
  226SOL    HW210288   4.335   1.940  -0.110  1.1712 -1.3808  0.5487
  227SOL     OW10289   2.371   1.780   1.276  0.1919 -0.4778 -0.3140
  227SOL    HW110290   2.451   1.785   1.336  1.2554  0.1173 -1.7181
  227SOL    HW210291   2.378   1.699   1.218  0.1463 -0.0464 -0.9309
  228SOL     OW10292   2.705   1.203   1.561 -0.6376  0.4182  0.2610
  228SOL    HW110293   2.774   1.132   1.547 -1.2777 -0.2376  0.4108
  228SOL    HW210294   2.615   1.161   1.567 -1.0832  1.2934 -0.1992
  229SOL     OW10295   4.490   1.520   1.954  0.2919 -0.8726 -0.2183
  229SOL    HW110296   4.515   1.459   2.029 -1.4351  0.3434  1.4130
  229SOL    HW210297   4.421   1.476   1.897 -0.4490 -0.7471  0.5590
  230SOL     OW10298   3.007   9.818  -0.168 -0.1257  0.0204  0.4067
  230SOL    HW110299   3.012   9.890  -0.237 -1.1082  0.8730  1.2199
  230SOL    HW210300   2.914   9.783  -0.163  0.1971 -0.8552  0.4940
  231SOL     OW10301   4.512   1.989   0.640  0.4096  0.4551  0.1812
  231SOL    HW110302   4.609   1.972   0.658 -0.0186 -0.2597  1.8934
  231SOL    HW210303   4.475   2.047   0.712 -0.7146 -0.2276  0.1622
  232SOL     OW10304   4.646   1.199   0.611  0.5135  0.3077  0.0908
  232SOL    HW110305   4.716   1.269   0.599  1.1423 -0.1756  0.8781
  232SOL    HW210306   4.614   1.199   0.706 -1.7592  1.6291 -0.6341
  233SOL     OW10307   4.006   1.985   0.999 -0.3842 -0.3584 -0.6281
  233SOL    HW110308   4.029   1.930   0.918 -0.6971 -1.0733 -0.2393
  233SOL    HW210309   3.950   1.930   1.062  0.3007  0.0127  0.3198
  234SOL     OW10310   2.969   2.624   1.898 -0.5287  0.1378  0.0625
  234SOL    HW110311   2.994   2.678   1.818  0.5492 -1.1500 -0.4831
  234SOL    HW210312   2.933   2.535   1.868  0.8099 -0.7346  1.0280
  235SOL     OW10313   3.231  10.030   1.660 -0.1036 -0.7146 -0.0684
  235SOL    HW110314   3.187  10.119   1.643  1.1820  0.2940  1.6939
  235SOL    HW210315   3.271   9.996   1.575  0.6217  1.0986 -0.4787
  236SOL     OW10316   3.790   2.183   0.818  0.1106 -0.2771  0.4776
  236SOL    HW110317   3.807   2.102   0.874 -0.7759 -0.5837  0.3075
  236SOL    HW210318   3.724   2.161   0.746  0.3808  0.4158  0.0117
  237SOL     OW10319   3.194   1.463   2.294 -0.1603  0.4099 -0.2194
  237SOL    HW110320   3.242   1.521   2.228 -1.2316  2.1688  0.4984
  237SOL    HW210321   3.110   1.428   2.252 -0.2656  0.6003 -0.1693
  238SOL     OW10322   2.285   0.889   1.635 -0.1100  0.5316  0.0221
  238SOL    HW110323   2.348   0.822   1.673  0.5208  0.7685 -0.5911
  238SOL    HW210324   2.207   0.843   1.594 -0.4466  0.2442  0.9761
  239SOL     OW10325   3.652   3.012   0.969  0.0556 -0.1129  0.7291
  239SOL    HW110326   3.621   3.018   0.874 -1.2630 -3.1025  0.9195
  239SOL    HW210327   3.720   3.083   0.986 -2.7753  3.2200 -1.2167
  240SOL     OW10328   3.851  10.567   0.348  0.0945  0.5642 -0.2435
  240SOL    HW110329   3.820  10.659   0.324  0.0422  0.9676  1.3310
  240SOL    HW210330   3.820  10.544   0.440  0.6797 -0.7751 -0.3645
  241SOL     OW10331   2.389   1.528   1.124  0.5398  0.2418 -0.5466
  241SOL    HW110332   2.296   1.517   1.089  0.2263  1.9627 -0.2800
  241SOL    HW210333   2.415   1.445   1.174 -0.9597 -0.1458 -0.3735
  242SOL     OW10334   2.089   1.763   0.090 -0.8382 -0.4718 -0.3879
  242SOL    HW110335   2.024   1.782   0.017  0.2624  0.3087 -1.1835
  242SOL    HW210336   2.121   1.849   0.129 -1.8259 -0.8846  1.3982
  243SOL     OW10337   2.445   1.182   0.737  0.1977 -0.5120 -0.1197
  243SOL    HW110338   2.494   1.145   0.816 -1.5824 -0.3984  1.0677
  243SOL    HW210339   2.467   1.280   0.728  0.6667 -0.6015  0.0289
  244SOL     OW10340   3.512   0.846   1.918  0.3688  0.0592 -0.4491
  244SOL    HW110341   3.560   0.925   1.881  0.4554  0.5480  0.6936
  244SOL    HW210342   3.471   0.870   2.006  2.0820 -1.7380  0.8843
  245SOL     OW10343   4.101   1.038   1.748  0.1324 -0.2982  0.4962
  245SOL    HW110344   4.122   1.106   1.818  0.9276 -0.9054  0.8432
  245SOL    HW210345   4.076   1.084   1.663 -0.4099  0.4352  1.0469
  246SOL     OW10346   3.101   3.178   0.259 -0.0972  0.1834  0.4675
  246SOL    HW110347   3.077   3.180   0.356 -0.4134 -0.6695  0.4083
  246SOL    HW210348   3.189   3.223   0.246  0.9975 -1.5838  1.4662
  247SOL     OW10349   3.258  10.472   0.990 -0.2927  0.5040 -0.0747
  247SOL    HW110350   3.208  10.491   0.906 -0.3013  1.6697  0.1809
  247SOL    HW210351   3.227  10.534   1.062  0.0519 -0.1589  0.6584
  248SOL     OW10352   2.902   1.728  -0.090  0.0447  0.0225  0.3045
  248SOL    HW110353   2.880   1.734   0.008 -1.8178  1.4939 -0.1704
  248SOL    HW210354   2.864   1.643  -0.127  0.0631 -0.1548  0.6821
  249SOL     OW10355   2.517  10.157   1.375 -0.2300  0.3174 -0.4256
  249SOL    HW110356   2.437  10.103   1.348  0.9988 -0.7106 -2.1657
  249SOL    HW210357   2.519  10.242   1.323  0.1596  0.0244 -0.8982
  250SOL     OW10358   3.888   2.924   1.429  0.6358 -0.3552 -0.2604
  250SOL    HW110359   3.970   2.936   1.485  0.2049 -0.7190  0.4475
  250SOL    HW210360   3.873   2.827   1.412 -0.0486 -0.3336  0.2138
  251SOL     OW10361   2.957  10.503   1.811 -0.5895  0.1312 -0.0268
  251SOL    HW110362   2.937  10.564   1.887  0.5083 -0.0522  0.4267
  251SOL    HW210363   2.960  10.555   1.726 -0.7193  0.5214  0.2042
  252SOL     OW10364   2.438  10.302   2.171 -0.2629  0.1940  1.0004
  252SOL    HW110365   2.409  10.311   2.076  0.1990 -0.9091  0.7608
  252SOL    HW210366   2.530  10.340   2.182  0.3060 -1.0917  0.6897
  253SOL     OW10367   2.896   0.810   1.883  0.4190  0.1704  0.2995
  253SOL    HW110368   2.804   0.774   1.898  0.0946  0.3062 -1.2359
  253SOL    HW210369   2.902   0.902   1.922 -0.7389  0.9687 -1.3337
  254SOL     OW10370   3.979   1.762   1.228 -0.3074  0.1380  0.2965
  254SOL    HW110371   4.037   1.704   1.285  0.3914  0.2496 -0.2961
  254SOL    HW210372   3.922   1.819   1.286  0.3664  0.2173  0.8837
  255SOL     OW10373   2.584   0.732   2.296  0.1226  0.2823  0.1392
  255SOL    HW110374   2.609   0.664   2.365  0.9619  0.4827  0.0325
  255SOL    HW210375   2.490   0.761   2.312 -0.6870 -1.8570 -0.6101
  256SOL     OW10376   3.911  10.035   1.914 -0.0447 -0.1053 -0.1757
  256SOL    HW110377   3.845  10.074   1.979  0.1988  0.4839 -0.2771
  256SOL    HW210378   3.941   9.945   1.947  1.8095  1.1480  1.7306
  257SOL     OW10379   2.745   1.337   1.304 -0.2914  0.8163 -0.1359
  257SOL    HW110380   2.726   1.287   1.389 -1.2601  1.2620 -0.0767
  257SOL    HW210381   2.804   1.415   1.324  1.4143 -0.4030 -0.2659
  258SOL     OW10382   3.092   1.158   2.135 -0.8648  0.6359 -0.7394
  258SOL    HW110383   3.059   1.088   2.198  1.0464  0.9260  0.6264
  258SOL    HW210384   3.037   1.241   2.147 -2.4445 -0.2534 -1.6120
  259SOL     OW10385   2.952   1.394   0.945 -0.2355 -0.9071 -0.6620
  259SOL    HW110386   2.886   1.409   0.871  1.0911 -0.1192 -1.7131
  259SOL    HW210387   2.971   1.481   0.990  0.6059 -1.0012 -0.8252
  260SOL     OW10388   3.899   2.595   0.033 -0.5131  0.1193 -0.1482
  260SOL    HW110389   3.905   2.496   0.047  0.9547  0.4518  1.6919
  260SOL    HW210390   3.929   2.642   0.116  0.2977  2.1338 -1.5665
  261SOL     OW10391   2.798   2.408   1.552 -0.0431  0.5396  0.0560
  261SOL    HW110392   2.870   2.478   1.563 -0.3328  0.4944  2.3707
  261SOL    HW210393   2.733   2.438   1.482  0.4528  2.0796  0.2391
  262SOL     OW10394   2.556   0.809   0.010  0.6325  0.0135  0.1012
  262SOL    HW110395   2.614   0.750  -0.047 -0.8452  0.2177 -1.6616
  262SOL    HW210396   2.460   0.787  -0.007  0.1443  0.4789  2.1258
  263SOL     OW10397   4.053   3.290   1.662  0.1885  0.2114 -0.0220
  263SOL    HW110398   3.966   3.316   1.703  1.1031  0.3113  1.9382
  263SOL    HW210399   4.126   3.349   1.698  1.3557 -1.0994 -0.1620
  264SOL     OW10400   2.220   0.888   1.237  0.2293 -0.6064  0.2547
  264SOL    HW110401   2.169   0.832   1.302  2.5982  0.2529  2.9049
  264SOL    HW210402   2.170   0.974   1.223 -0.1869 -0.6977  1.1005
  265SOL     OW10403   4.207  10.190   0.040 -0.3056  0.0158 -0.2818
  265SOL    HW110404   4.278  10.251   0.004 -1.0821  0.7102 -0.6582
  265SOL    HW210405   4.247  10.128   0.106  0.2323  1.9506  1.2628
  266SOL     OW10406   2.714  10.063   1.550  0.4309 -0.8514 -0.2197
  266SOL    HW110407   2.686  10.081   1.645  0.3902 -0.9800 -0.2079
  266SOL    HW210408   2.639  10.087   1.488  1.0261  0.7959 -0.3416
  267SOL     OW10409   4.316   2.177   1.106 -0.2178 -0.3875 -0.2772
  267SOL    HW110410   4.353   2.084   1.100 -0.2498 -0.4369  0.2484
  267SOL    HW210411   4.340   2.216   1.195 -1.1012 -0.2776 -0.0858
  268SOL     OW10412   3.322  10.014   0.631 -0.7893  0.0077 -0.4666
  268SOL    HW110413   3.366  10.026   0.720  1.0237  1.5441 -1.5184
  268SOL    HW210414   3.337   9.920   0.599  2.0368  0.5559 -0.9061
  269SOL     OW10415   3.115   1.384   1.383  0.8024 -0.2959 -0.2459
  269SOL    HW110416   3.106   1.322   1.305  2.1182 -0.2986 -0.3985
  269SOL    HW210417   3.116   1.330   1.467 -1.0879 -0.2624 -0.1753
  270SOL     OW10418   3.781   0.846   2.093  0.3781 -0.0390  0.0352
  270SOL    HW110419   3.852   0.845   2.022  0.6732 -2.6086  0.3136
  270SOL    HW210420   3.691   0.834   2.050  0.4450 -0.3781 -0.0107
  271SOL     OW10421   3.157  10.113   0.234 -0.2074 -0.2228  0.1199
  271SOL    HW110422   3.156  10.026   0.186  2.2552  0.4747 -1.2836
  271SOL    HW210423   3.162  10.188   0.168  2.6027  0.7717  1.3729
  272SOL     OW10424   2.803   1.364   2.404 -0.0754 -0.3866 -0.4132
  272SOL    HW110425   2.747   1.282   2.390 -1.4043  0.4476 -0.0201
  272SOL    HW210426   2.834   1.368   2.499 -0.5997 -0.0692 -0.2538
  273SOL     OW10427   2.875  10.254   1.799  0.2207 -0.0215 -0.0227
  273SOL    HW110428   2.895  10.352   1.800  0.8667 -0.1517  1.2182
  273SOL    HW210429   2.960  10.203   1.814 -0.5568 -0.6589  2.5474
  274SOL     OW10430   4.744   2.654   0.154 -0.1009  0.7349  1.0501
  274SOL    HW110431   4.723   2.701   0.240 -1.0015  1.7951  0.2720
  274SOL    HW210432   4.765   2.722   0.084 -1.7840 -0.0148 -0.1910
  275SOL     OW10433   3.824   1.583   1.075 -0.3763 -0.3664 -0.0078
  275SOL    HW110434   3.891   1.648   1.110  1.0790 -2.9987  2.3478
  275SOL    HW210435   3.851   1.551   0.984  0.7716 -0.2885  0.3058
  276SOL     OW10436   2.941  10.167   1.493  0.8130 -0.1482 -0.6359
  276SOL    HW110437   2.977  10.220   1.570  0.9316 -1.1379 -0.0115
  276SOL    HW210438   2.862  10.114   1.522  1.5228 -1.3679 -0.9286
  277SOL     OW10439   2.943   0.680   1.621 -0.2056  0.0082  0.4916
  277SOL    HW110440   2.978   0.732   1.543  0.2172 -0.9715  0.0213
  277SOL    HW210441   2.921   0.743   1.696  1.1103  0.7764  0.2434
  278SOL     OW10442   3.099  10.453   0.750  0.0424 -0.0327 -0.0452
  278SOL    HW110443   3.158  10.533   0.749 -1.0638  0.7800 -1.2833
  278SOL    HW210444   3.136  10.384   0.688  0.1844  0.1159 -0.1258
  279SOL     OW10445   2.413   1.338   0.469 -0.3394 -0.1917  0.6392
  279SOL    HW110446   2.435   1.374   0.560 -0.9739 -0.6644  0.9821
  279SOL    HW210447   2.470   1.257   0.451  0.9626  0.8647 -0.0612
  280SOL     OW10448   2.262   1.867   2.445  0.0977  0.2912 -0.4989
  280SOL    HW110449   2.247   1.937   2.375 -2.7661  0.9955  0.7518
  280SOL    HW210450   2.255   1.776   2.404  1.1422  0.7031 -1.6131
  281SOL     OW10451   3.687  10.260  -0.042  0.1590 -0.2789  0.0748
  281SOL    HW110452   3.597  10.218  -0.037 -0.1825  0.6590  2.2001
  281SOL    HW210453   3.723  10.274   0.051  1.6560  1.1509 -0.6943
  282SOL     OW10454   3.918   2.959   0.191 -0.2391  0.4409  0.7468
  282SOL    HW110455   3.990   2.985   0.127  1.1210 -2.1737  1.1634
  282SOL    HW210456   3.835   2.934   0.141  0.6485 -1.0595 -0.0039
  283SOL     OW10457   3.163   0.762   1.974  0.6963  0.1798 -0.2204
  283SOL    HW110458   3.221   0.723   1.903  0.4609 -0.3862 -0.1071
  283SOL    HW210459   3.067   0.749   1.949  0.6173  0.5966 -0.1326
  284SOL     OW10460   4.796   3.106   1.499  0.2411  0.3048  0.4696
  284SOL    HW110461   4.809   3.010   1.526 -0.6300  0.1074  0.2211
  284SOL    HW210462   4.752   3.110   1.410  1.5099  0.9571 -0.1358
  285SOL     OW10463   2.491   1.094  -0.078  0.3824 -0.4038 -0.2231
  285SOL    HW110464   2.490   1.160  -0.003 -1.8953  2.4026 -2.5644
  285SOL    HW210465   2.443   1.011  -0.050 -0.3474  0.5698  1.4756
  286SOL     OW10466   2.891  10.657   1.308 -0.3623 -0.0376  0.3101
  286SOL    HW110467   2.837  10.741   1.318  0.0349  0.2571 -0.0080
  286SOL    HW210468   2.844  10.595   1.245 -0.1893  0.3401 -0.1956
  287SOL     OW10469   3.426   1.587   1.598  0.7199  0.5283 -0.4471
  287SOL    HW110470   3.425   1.536   1.684  0.2177 -0.7114 -1.1705
  287SOL    HW210471   3.338   1.575   1.552  0.9496  1.2712 -1.0794
  288SOL     OW10472   3.942  10.113   0.093  0.1127  0.2103  0.3988
  288SOL    HW110473   3.891  10.174   0.153  1.0279 -0.6706  2.1312
  288SOL    HW210474   4.034  10.149   0.079  0.3337 -0.2602  0.6155
  289SOL     OW10475   4.017  10.608   0.133 -0.0877  0.2985 -0.0567
  289SOL    HW110476   4.018  10.541   0.059 -0.7415  0.6686 -0.4046
  289SOL    HW210477   3.976  10.567   0.215  0.4670 -0.0508  0.0507
  290SOL     OW10478   3.300  10.480   1.365 -0.3164 -0.1866 -0.2300
  290SOL    HW110479   3.247  10.482   1.280  0.5561  0.6196 -0.7808
  290SOL    HW210480   3.345  10.391   1.374  0.6699  0.1756 -1.3259
  291SOL     OW10481   3.348   3.043   1.922  0.3194 -0.4106  0.3119
  291SOL    HW110482   3.412   3.009   1.990  0.7212 -0.3986 -0.0583
  291SOL    HW210483   3.386   3.124   1.877  1.5959 -2.4035 -2.3478
  292SOL     OW10484   3.411  10.239  -0.095  0.0575 -0.0559 -0.3993
  292SOL    HW110485   3.403  10.144  -0.064  0.8337 -0.4363 -1.3173
  292SOL    HW210486   3.412  10.241  -0.195 -0.4555  0.9701 -0.3889
  293SOL     OW10487   2.018   1.269   0.895 -0.1868  0.5069 -0.4287
  293SOL    HW110488   1.992   1.181   0.936  1.4666  1.0575  1.9358
  293SOL    HW210489   2.086   1.254   0.823  1.9079 -0.0227  1.5967
  294SOL     OW10490   4.260   2.493   1.239 -0.3293 -0.7607  0.4842
  294SOL    HW110491   4.328   2.441   1.290 -0.7282 -1.2604  0.5038
  294SOL    HW210492   4.218   2.561   1.300 -0.5699 -1.1351  0.7418
  295SOL     OW10493   2.184   2.017   0.228  0.4532 -0.1832  0.4509
  295SOL    HW110494   2.147   2.110   0.232 -0.2569 -0.4071 -0.6858
  295SOL    HW210495   2.230   1.996   0.314 -0.6826  0.6821  1.2805
  296SOL     OW10496   4.252   1.063   1.404 -0.2622  0.0235  0.2376
  296SOL    HW110497   4.290   0.984   1.357 -0.0705  0.6280 -0.6271
  296SOL    HW210498   4.325   1.129   1.423 -0.7751  0.9454 -0.9416
  297SOL     OW10499   2.741  10.234   0.584 -0.3017 -0.2976  0.1997
  297SOL    HW110500   2.764  10.312   0.641 -1.5172 -0.8575  1.4920
  297SOL    HW210501   2.818  10.211   0.525  0.0726  1.8454 -0.1727
  298SOL     OW10502   3.942   3.178   0.829  0.1430 -0.2736  0.4697
  298SOL    HW110503   3.934   3.140   0.921  0.9406  0.8667  1.0133
  298SOL    HW210504   4.018   3.133   0.781  0.3524 -0.1807  0.7121
  299SOL     OW10505   2.671  10.033   0.732 -0.2241  0.0192 -0.0162
  299SOL    HW110506   2.691  10.098   0.658 -1.4000  0.2569 -0.1203
  299SOL    HW210507   2.708  10.068   0.818 -0.5968  0.6823 -0.1263
  300SOL     OW10508   3.129  10.578  -0.045  0.2863 -0.3741  0.0694
  300SOL    HW110509   3.216  10.587   0.005  0.0597  1.5935  0.1333
  300SOL    HW210510   3.103  10.667  -0.082 -1.4870 -1.0521 -0.3242
  301SOL     OW10511   4.099   2.954   0.636 -0.2071 -0.2484 -0.4411
  301SOL    HW110512   4.067   2.860   0.647  0.1527 -0.1508  1.6374
  301SOL    HW210513   4.053   2.995   0.557  0.5082 -2.5149 -2.0892
  302SOL     OW10514   2.689   1.663   0.943 -0.1246  0.2241  0.5818
  302SOL    HW110515   2.613   1.659   1.008 -0.4232  1.2831  0.3055
  302SOL    HW210516   2.704   1.572   0.905 -2.0785  0.2361 -0.2888
  303SOL     OW10517   2.673   1.863   2.425  0.0363 -0.1818  0.7019
  303SOL    HW110518   2.583   1.906   2.433  0.1082 -0.0414  0.7575
  303SOL    HW210519   2.729   1.887   2.505 -1.0549 -3.0978  2.3907
  304SOL     OW10520   3.777  10.074   2.397 -0.4264 -0.6440  0.1271
  304SOL    HW110521   3.762  10.168   2.427 -0.8987 -0.9809  0.9710
  304SOL    HW210522   3.847  10.031   2.454  0.8566 -0.3518 -1.2032
  305SOL     OW10523   2.427  10.066   2.334 -0.0126  0.2022 -0.0036
  305SOL    HW110524   2.388  10.097   2.420 -2.6595  0.0079 -1.0706
  305SOL    HW210525   2.424  10.140   2.267 -1.2128 -0.6758 -0.9368
  306SOL     OW10526   4.191   2.822   1.270  0.1784  0.0002  0.2320
  306SOL    HW110527   4.203   2.762   1.349 -1.4685 -0.6831 -0.0056
  306SOL    HW210528   4.107   2.797   1.222 -0.5620  2.4968  0.1297
  307SOL     OW10529   2.625   2.219   1.667  0.0428  0.2908 -0.4471
  307SOL    HW110530   2.646   2.296   1.606  2.0735  0.3038  0.2295
  307SOL    HW210531   2.710   2.172   1.691 -1.0491 -1.4156  0.1483
  308SOL     OW10532   3.193   1.632   1.440  0.2797  0.3056  0.2914
  308SOL    HW110533   3.234   1.676   1.361 -0.3175 -0.6479 -0.5549
  308SOL    HW210534   3.171   1.537   1.419  0.3886 -0.0516  1.6959
  309SOL     OW10535   2.437   1.642   1.912  0.1974  0.4036  0.1365
  309SOL    HW110536   2.401   1.682   1.996  0.8683  0.4047  0.4250
  309SOL    HW210537   2.362   1.624   1.848 -0.3380  0.1386  0.8458
  310SOL     OW10538   4.520   5.640   1.226 -0.1756  0.4103  0.2224
  310SOL    HW110539   4.551   5.637   1.131 -1.7321  0.1554 -0.2935
  310SOL    HW210540   4.467   5.723   1.241 -0.0347  0.3909  0.8502
  311SOL     OW10541   3.420  10.241   1.352  0.4066 -0.3410 -0.9555
  311SOL    HW110542   3.403  10.250   1.254 -0.8059  0.2828 -0.7028
  311SOL    HW210543   3.425  10.144   1.376 -0.7466 -0.5152 -1.4020
  312SOL     OW10544   3.873   2.341   0.628 -0.0501 -0.1995 -0.0176
  312SOL    HW110545   3.876   2.276   0.704  0.6925  1.0525  1.0395
  312SOL    HW210546   3.867   2.434   0.663  0.7707  0.4347 -1.4764
  313SOL     OW10547   3.090   9.990   1.351  0.5244  0.2445  0.0623
  313SOL    HW110548   3.036  10.056   1.405  0.5843 -1.5357  2.3685
  313SOL    HW210549   3.028   9.933   1.297  0.3603  0.8842 -0.4356
  314SOL     OW10550   4.831   2.184   0.266  0.6316 -0.1851  0.0518
  314SOL    HW110551   4.759   2.136   0.316 -1.3600 -1.2635 -3.6546
  314SOL    HW210552   4.807   2.281   0.257  0.8365 -0.0553  0.8276
  315SOL     OW10553   3.198  10.267   0.586 -0.1088 -0.4828  0.0087
  315SOL    HW110554   3.219  10.321   0.504  2.1488  1.5977  1.8829
  315SOL    HW210555   3.247  10.180   0.582  0.4227 -0.1595 -0.5963
  316SOL     OW10556   3.951   2.571   2.187  0.0298  0.2140  0.1188
  316SOL    HW110557   3.871   2.593   2.131  0.2180  3.0171  0.8627
  316SOL    HW210558   3.925   2.571   2.284  0.6291 -0.2739  0.2807
  317SOL     OW10559   4.694   1.601   1.383 -0.0741  0.7617 -0.4178
  317SOL    HW110560   4.701   1.701   1.391  1.1442  0.4940  2.0557
  317SOL    HW210561   4.749   1.557   1.454  0.2807 -1.7110 -2.1593
  318SOL     OW10562   2.367  10.404   0.880 -0.5355  0.1934 -0.1788
  318SOL    HW110563   2.401  10.310   0.886  0.2205  0.5448  1.3388
  318SOL    HW210564   2.268  10.404   0.870 -0.4211 -0.7802 -1.4109
  319SOL     OW10565   3.469   0.819   0.980  0.2803 -0.2832  0.0508
  319SOL    HW110566   3.501   0.897   0.926 -0.2856  1.3284  1.9934
  319SOL    HW210567   3.414   0.759   0.922 -0.1385  1.2919 -1.2218
  320SOL     OW10568   2.936   1.637   1.091 -0.4753  0.0728  0.2455
  320SOL    HW110569   2.841   1.628   1.063 -0.2893 -0.2394 -0.2799
  320SOL    HW210570   2.943   1.631   1.191 -1.2381  1.9852  0.4427
  321SOL     OW10571   2.180   1.612   1.776  0.1935 -0.1709  0.4886
  321SOL    HW110572   2.143   1.705   1.781  1.2527  0.2342  0.8298
  321SOL    HW210573   2.209   1.593   1.682 -1.8647 -0.8841 -0.0326
  322SOL     OW10574   3.834   3.157   2.083  0.9149 -0.4168  0.2524
  322SOL    HW110575   3.922   3.109   2.087  1.4366  0.5043 -0.1888
  322SOL    HW210576   3.839   3.242   2.136  0.4678 -0.0715 -0.2560
  323SOL     OW10577   4.021   0.857   0.630  0.0837  0.0781  0.1080
  323SOL    HW110578   4.114   0.825   0.610  0.2002 -0.4001  1.3474
  323SOL    HW210579   4.025   0.940   0.685 -0.2271  0.7637 -0.8977
  324SOL     OW10580   3.445   2.354   1.188 -0.1002 -0.4161  0.5022
  324SOL    HW110581   3.416   2.450   1.181 -0.9938 -0.8046 -1.2748
  324SOL    HW210582   3.518   2.347   1.257 -0.3838  1.4467  1.0386
  325SOL     OW10583   3.789   1.016   1.544 -0.3381  0.0762 -0.1272
  325SOL    HW110584   3.728   1.086   1.581  0.3191  0.0063  1.0958
  325SOL    HW210585   3.787   0.936   1.604  0.9063  0.0431 -0.1268
  326SOL     OW10586   2.338   1.914   0.030  0.3178  0.1051 -0.0371
  326SOL    HW110587   2.282   1.953   0.103  0.2731  2.0436 -1.0610
  326SOL    HW210588   2.283   1.904  -0.053  1.6582  2.9007 -1.3313
  327SOL     OW10589   3.582   1.298   2.301 -0.3871 -0.2169 -0.3884
  327SOL    HW110590   3.562   1.387   2.343 -0.9628 -0.2693 -0.5565
  327SOL    HW210591   3.671   1.303   2.257 -0.7103  0.4833 -0.9767
  328SOL     OW10592   3.699   2.947   2.209  0.0304 -0.1258 -0.5695
  328SOL    HW110593   3.756   3.010   2.156 -0.9053  0.5927 -0.7426
  328SOL    HW210594   3.693   2.859   2.161 -2.0141  0.9938 -2.4501
  329SOL     OW10595   2.997   0.705   0.405  0.3235  0.5027  0.1703
  329SOL    HW110596   3.089   0.687   0.440  1.1030 -2.2168 -3.0347
  329SOL    HW210597   3.003   0.772   0.331 -0.0893 -0.6061 -0.8773
  330SOL     OW10598   3.827   0.804   2.342  0.0552 -0.0236  0.0914
  330SOL    HW110599   3.797   0.794   2.248 -0.5804 -1.4512  0.4253
  330SOL    HW210600   3.920   0.769   2.351  0.3322  0.6647 -0.1329
  331SOL     OW10601   3.304   1.041   2.024  0.0537 -0.0477  0.5270
  331SOL    HW110602   3.224   1.077   2.072 -0.2655  0.2326 -0.2090
  331SOL    HW210603   3.358   0.985   2.086 -1.2170 -1.0193  0.7687
  332SOL     OW10604   3.156  10.321   1.659 -0.2677 -0.2487  0.4135
  332SOL    HW110605   3.088  10.391   1.681 -1.0696 -0.6523 -0.7449
  332SOL    HW210606   3.247  10.355   1.679 -0.6521  1.1310 -0.1588
  333SOL     OW10607   3.839   2.671   1.376  0.5160 -0.7197 -0.6484
  333SOL    HW110608   3.741   2.659   1.386  0.1338  1.5543 -1.3780
  333SOL    HW210609   3.886   2.586   1.398 -1.4112 -1.0042  2.6808
  334SOL     OW10610   2.777   0.919  -0.197 -0.5596  0.2615 -0.0580
  334SOL    HW110611   2.692   0.893  -0.153 -0.5533  1.3255  0.5983
  334SOL    HW210612   2.760   0.992  -0.262 -0.0325  0.9934  0.6212
  335SOL     OW10613   3.866  10.326   0.957 -0.2548  0.6625  0.1179
  335SOL    HW110614   3.855  10.378   1.041 -0.8879  0.2413  0.2988
  335SOL    HW210615   3.963  10.323   0.932  0.0744 -0.1877  1.4611
  336SOL     OW10616   2.941   1.371   2.157 -0.0745 -0.0506  0.6576
  336SOL    HW110617   2.870   1.415   2.102  1.4894  1.4104 -0.2412
  336SOL    HW210618   2.910   1.364   2.252 -2.4416 -1.7811 -0.2021
  337SOL     OW10619   2.404   1.715   2.187  0.2580  0.0078  0.1455
  337SOL    HW110620   2.345   1.660   2.245  0.4451 -1.1846 -0.7845
  337SOL    HW210621   2.491   1.731   2.234  0.5404 -1.2404  0.0436
  338SOL     OW10622   2.848   2.206   0.266  0.2651 -0.6632  0.1224
  338SOL    HW110623   2.748   2.202   0.253  0.3084 -0.4041 -0.3243
  338SOL    HW210624   2.892   2.159   0.190  0.4836 -0.8346  0.3567
  339SOL     OW10625   2.701   1.905   1.270  0.1134  0.1467  0.1201
  339SOL    HW110626   2.794   1.890   1.302 -0.5096 -0.0072  1.9005
  339SOL    HW210627   2.652   1.818   1.268 -0.3239  0.3906  0.2259
  340SOL     OW10628   2.474   1.293   1.207  0.1423  0.6483 -0.1181
  340SOL    HW110629   2.565   1.334   1.212  0.7077 -0.2153 -2.8922
  340SOL    HW210630   2.482   1.193   1.214 -0.7033  0.6172  0.5457
  341SOL     OW10631   2.296   1.929   0.438 -0.9110 -0.3369 -0.3230
  341SOL    HW110632   2.275   1.832   0.431 -1.2558 -0.4327  1.8306
  341SOL    HW210633   2.326   1.951   0.531 -3.7715  2.1549  0.0969
  342SOL     OW10634   3.286  10.265   2.314  0.7018 -0.6897  0.0642
  342SOL    HW110635   3.317  10.244   2.221  2.4508  1.2154  0.1730
  342SOL    HW210636   3.234  10.350   2.313  1.7546 -0.0248  1.0002
  343SOL     OW10637   2.179   0.952   0.024  0.1746  0.0625 -0.0743
  343SOL    HW110638   2.165   0.972   0.120  1.4487  2.3757 -0.3334
  343SOL    HW210639   2.095   0.971  -0.027 -0.9247 -2.4372  0.7180
  344SOL     OW10640   2.614  10.578  -0.165  0.0528  0.2754 -0.3412
  344SOL    HW110641   2.687  10.535  -0.111  0.4248 -0.2234 -1.2195
  344SOL    HW210642   2.526  10.542  -0.137  0.3295 -0.7374 -0.7571
  345SOL     OW10643   2.582   0.871   0.274  0.0741 -0.1139  0.5872
  345SOL    HW110644   2.573   0.859   0.175 -1.8950 -0.2532  0.7588
  345SOL    HW210645   2.637   0.795   0.311  0.1446 -0.5035 -0.2907
  346SOL     OW10646   3.832   0.670   0.764  0.1123  0.0804  0.0506
  346SOL    HW110647   3.844   0.711   0.854 -0.2151  0.0927  0.0918
  346SOL    HW210648   3.879   0.724   0.695 -0.6907  0.7793  0.0413
  347SOL     OW10649   3.665   2.020  -0.079  0.2146 -0.5073  0.4295
  347SOL    HW110650   3.635   2.115  -0.073 -0.5581 -0.8122  1.5889
  347SOL    HW210651   3.707   1.993   0.008  1.2101 -0.9736 -0.1877
  348SOL     OW10652   3.940   1.043   2.240  0.0831  0.4280 -0.0576
  348SOL    HW110653   3.912   0.951   2.216 -1.0051  1.0067 -1.0514
  348SOL    HW210654   3.934   1.055   2.339  0.2802 -0.5653  0.0814
  349SOL     OW10655   2.692   1.990   0.683 -0.2595  0.5213  0.2325
  349SOL    HW110656   2.743   1.937   0.751  0.9512  3.2760  1.5744
  349SOL    HW210657   2.597   1.958   0.679 -0.0054 -0.5591  2.2710
  350SOL     OW10658   4.323   2.735   1.836 -0.1626 -0.1630  0.5982
  350SOL    HW110659   4.235   2.691   1.817 -1.5810  0.8423  4.4687
  350SOL    HW210660   4.314   2.834   1.826  1.2564 -0.1884 -1.3866
  351SOL     OW10661   4.432   1.092   0.236 -0.2067  0.5136 -0.0431
  351SOL    HW110662   4.480   1.154   0.175 -0.3613  2.0154  1.3145
  351SOL    HW210663   4.498   1.048   0.297 -0.1516 -0.2596 -0.6652
  352SOL     OW10664   2.955   2.047   0.036  0.3473 -0.0277 -0.4122
  352SOL    HW110665   2.877   2.076  -0.019 -0.3084 -0.2698  0.3679
  352SOL    HW210666   3.005   1.975  -0.012  0.0244  0.0504 -0.8709
  353SOL     OW10667   3.076   9.889   0.080 -0.5207  0.3799 -0.3921
  353SOL    HW110668   3.079   9.809   0.139 -1.3602  0.8077  0.2528
  353SOL    HW210669   3.053   9.862  -0.013 -0.4751 -0.1586 -0.2457
  354SOL     OW10670   2.488   2.060  -0.190  0.0847  0.1981 -0.0005
  354SOL    HW110671   2.449   2.124  -0.255  1.7485  1.4796  0.2410
  354SOL    HW210672   2.414   2.010  -0.144 -1.1913  1.4355 -0.6822
  355SOL     OW10673   3.583   0.873   1.394  0.1054  0.2782  0.1176
  355SOL    HW110674   3.647   0.945   1.419 -1.2519  1.7535 -0.5960
  355SOL    HW210675   3.623   0.816   1.322 -0.1236  2.3509 -1.6809
  356SOL     OW10676   3.651  10.365   1.417 -0.5751 -0.3575 -0.3679
  356SOL    HW110677   3.695  10.284   1.456  0.8348 -0.2599 -1.7071
  356SOL    HW210678   3.553  10.349   1.410 -0.2483 -2.2079 -1.1625
  357SOL     OW10679   3.821   3.430   1.763 -0.3187  0.1174  0.2936
  357SOL    HW110680   3.797   3.455   1.670  1.0006  0.9269  0.1657
  357SOL    HW210681   3.753   3.365   1.798 -0.8914 -0.1021 -1.1742
  358SOL     OW10682   2.630   0.793   1.988  0.2149  0.0013  0.0517
  358SOL    HW110683   2.620   0.760   2.082 -0.3316 -0.4041 -0.1483
  358SOL    HW210684   2.589   0.884   1.980  0.7699  0.2795  0.3428
  359SOL     OW10685   2.458  10.139   0.879  0.0204  0.2626 -0.0207
  359SOL    HW110686   2.467  10.072   0.805 -0.2899 -0.6786  0.7985
  359SOL    HW210687   2.500  10.103   0.962 -3.0156 -0.3182  1.3352
  360SOL     OW10688   2.726  10.654   0.379 -0.3055 -0.0930  0.8582
  360SOL    HW110689   2.819  10.689   0.374 -0.7815  1.1775  0.7269
  360SOL    HW210690   2.724  10.559   0.349  0.5124  0.6795 -1.7426
  361SOL     OW10691   3.073   0.885   2.245  0.3737  0.3082  0.1404
  361SOL    HW110692   3.009   0.816   2.278  0.6045  0.0028 -0.0394
  361SOL    HW210693   3.106   0.858   2.154 -0.4996  1.3050 -0.4743
  362SOL     OW10694   2.153   1.642   1.469 -0.3445  0.0713  0.3388
  362SOL    HW110695   2.081   1.708   1.449 -0.8701 -0.2193  1.2144
  362SOL    HW210696   2.241   1.678   1.438 -0.8470  0.4697 -0.6513
  363SOL     OW10697   4.582   2.058   0.395 -0.6630  0.2398  0.2391
  363SOL    HW110698   4.561   2.011   0.481 -0.7283  0.9352  0.6048
  363SOL    HW210699   4.518   2.134   0.382 -0.8829 -0.0819 -0.6013
  364SOL     OW10700   2.688   2.469   1.318 -0.2789 -0.5858 -0.2871
  364SOL    HW110701   2.640   2.413   1.251 -2.0117  0.7204 -0.1708
  364SOL    HW210702   2.734   2.545   1.271 -0.2171 -0.5371 -0.1481
  365SOL     OW10703   2.378  10.164  -0.084  0.4283 -0.4748 -0.8574
  365SOL    HW110704   2.405  10.260  -0.083  0.8428 -0.5904 -0.8811
  365SOL    HW210705   2.338  10.140   0.005 -0.4727 -0.0590 -1.1407
  366SOL     OW10706   4.149   1.592   1.395 -0.0120  0.1240 -0.1003
  366SOL    HW110707   4.077   1.530   1.427  1.2765 -0.4148  1.8817
  366SOL    HW210708   4.236   1.544   1.394  0.7267  1.4412 -0.1741
  367SOL     OW10709   3.173   2.490   0.802 -0.7606 -0.0722 -0.2935
  367SOL    HW110710   3.154   2.400   0.839 -0.1063 -0.8563 -1.8297
  367SOL    HW210711   3.242   2.536   0.859 -2.0199 -0.0157  1.2185
  368SOL     OW10712   3.832   1.362   1.249  0.3055 -0.3430 -0.1967
  368SOL    HW110713   3.812   1.445   1.197  1.6786 -0.6549 -1.2627
  368SOL    HW210714   3.865   1.386   1.340  0.0416  0.2673 -0.2638
  369SOL     OW10715   2.286   0.944   0.832  0.8667 -0.2305 -0.0913
  369SOL    HW110716   2.337   0.993   0.760 -0.0564  0.9602  0.0529
  369SOL    HW210717   2.312   0.847   0.831  1.0373 -0.1875 -1.8854
  370SOL     OW10718   3.308  10.630   0.767  0.2490 -0.0250  0.1409
  370SOL    HW110719   3.305  10.662   0.672 -0.0359  0.4659  0.3145
  370SOL    HW210720   3.401  10.599   0.789  0.7149  1.4045  0.2068
  371SOL     OW10721   4.369   3.713   1.738  0.5418 -0.4025  0.4175
  371SOL    HW110722   4.398   3.653   1.663 -2.6490 -0.6544 -0.7065
  371SOL    HW210723   4.380   3.808   1.712 -0.1014 -0.4937 -0.2014
  372SOL     OW10724   4.162   1.853   0.295 -0.0775 -0.2602 -0.1460
  372SOL    HW110725   4.220   1.916   0.245 -2.2880 -0.0464 -2.5261
  372SOL    HW210726   4.217   1.777   0.330  1.7103  0.2892 -1.7164
  373SOL     OW10727   3.385   1.032   0.269 -0.2214  0.0660  0.7280
  373SOL    HW110728   3.428   0.996   0.187 -1.8379  0.5354 -0.3452
  373SOL    HW210729   3.345   1.122   0.249  0.3651  0.6908  2.3223
  374SOL     OW10730   3.354   9.951   1.405  0.2507  0.6424  0.0884
  374SOL    HW110731   3.393   9.867   1.367  1.1612  1.7704 -1.4999
  374SOL    HW210732   3.265   9.968   1.363  2.0397  2.8515 -2.9950
  375SOL     OW10733   4.855   1.485   1.598  0.0138 -0.2042  0.4273
  375SOL    HW110734   4.787   1.522   1.662 -0.7847 -1.2788  0.2198
  375SOL    HW210735   4.885   1.396   1.630  1.1436  0.1462  0.3656
  376SOL     OW10736   3.745  10.136   2.133 -0.2723 -0.2833  0.2240
  376SOL    HW110737   3.713  10.228   2.115  0.7681  0.6015  2.6225
  376SOL    HW210738   3.753  10.122   2.232  0.0717 -2.7764 -0.1017
  377SOL     OW10739   4.482   1.363   2.158 -0.2132  0.5991 -0.2135
  377SOL    HW110740   4.420   1.291   2.187 -0.9369  1.0334 -0.6607
  377SOL    HW210741   4.473   1.442   2.219  1.4120 -0.1088  0.9713
  378SOL     OW10742   4.197   1.470   2.167 -0.2912  0.1492 -0.1812
  378SOL    HW110743   4.269   1.510   2.224  0.8881 -1.3667 -0.5555
  378SOL    HW210744   4.185   1.374   2.192 -0.1257 -0.3939 -2.1124
  379SOL     OW10745   2.717   1.437   2.073 -0.1496 -0.0583  0.0496
  379SOL    HW110746   2.655   1.383   2.130  0.0555 -0.3434 -0.0017
  379SOL    HW210747   2.688   1.533   2.076 -0.5706 -0.1818  0.0622
  380SOL     OW10748   3.478   0.874   2.179  0.2959  0.7369  0.1005
  380SOL    HW110749   3.493   0.943   2.250  0.3387  0.3116  0.5115
  380SOL    HW210750   3.482   0.783   2.220  2.4232  0.3879 -0.7882
  381SOL     OW10751   2.836  10.498   0.650  0.0511 -0.4329 -0.6507
  381SOL    HW110752   2.844  10.558   0.571 -0.8169  0.0422 -0.3836
  381SOL    HW210753   2.925  10.491   0.696 -0.2735  2.2767  0.4888
  382SOL     OW10754   2.688   1.145   0.897 -0.0899  0.1868 -0.3466
  382SOL    HW110755   2.783   1.165   0.872 -0.4147  0.0848 -1.7234
  382SOL    HW210756   2.684   1.064   0.954  0.7509  0.8423  0.6593
  383SOL     OW10757   3.448   9.945   0.063  0.1630 -0.7055 -0.5339
  383SOL    HW110758   3.526   9.883   0.070  0.0283 -0.8409 -0.2354
  383SOL    HW210759   3.364   9.892   0.050 -0.2189 -0.7077  1.7211
  384SOL     OW10760   3.344   9.902   2.399  0.0080 -0.4631  0.1618
  384SOL    HW110761   3.342   9.815   2.449  0.8390 -0.5096  0.1168
  384SOL    HW210762   3.251   9.927   2.373 -0.5458 -0.0011  2.4957
  385SOL     OW10763   3.825   9.937   0.458  0.1299 -0.2197  0.2511
  385SOL    HW110764   3.771  10.021   0.448 -0.7010 -0.4991  2.3388
  385SOL    HW210765   3.770   9.866   0.500  1.1285 -1.5418 -0.6527
  386SOL     OW10766   2.947   1.228   1.149 -0.3742 -0.2091  0.0494
  386SOL    HW110767   2.928   1.258   1.056  2.4440  1.6222  0.0263
  386SOL    HW210768   2.876   1.262   1.210 -1.2942  0.0413 -1.1417
  387SOL     OW10769   3.206   1.766   1.826  0.4786 -0.0726 -0.1885
  387SOL    HW110770   3.235   1.679   1.866  0.5074  0.8610  1.8313
  387SOL    HW210771   3.274   1.795   1.758  1.6548 -0.4844  0.7942
  388SOL     OW10772   4.276   2.703   1.487  0.5352 -0.2181  0.3718
  388SOL    HW110773   4.375   2.707   1.474  0.2514  1.7486 -1.2578
  388SOL    HW210774   4.257   2.674   1.581  2.6267 -2.9561  0.0218
  389SOL     OW10775   4.290   2.604   0.984 -0.3604  0.2538 -0.2697
  389SOL    HW110776   4.296   2.546   1.065 -2.3425 -0.3599 -0.5246
  389SOL    HW210777   4.296   2.547   0.902  0.8731  0.7865 -0.5595
  390SOL     OW10778   2.308   0.807   2.330  0.2053 -0.0364  0.5628
  390SOL    HW110779   2.244   0.883   2.321 -1.2832 -1.2038  1.0494
  390SOL    HW210780   2.293   0.760   2.417  0.3878 -1.5125 -0.1723
  391SOL     OW10781   3.204  10.330   0.075 -1.0082  0.5573 -0.0946
  391SOL    HW110782   3.290  10.311   0.028 -0.4511  0.6056  0.8817
  391SOL    HW210783   3.157  10.406   0.030 -1.1728 -0.3183 -1.4205
  392SOL     OW10784   2.243  10.319   0.363  0.5726  0.3095 -0.2287
  392SOL    HW110785   2.277  10.348   0.452 -1.4773  0.9761  0.3644
  392SOL    HW210786   2.187  10.237   0.374  1.6505 -0.5781 -1.1522
  393SOL     OW10787   2.387   1.402   1.999  0.0825 -0.4505  0.0469
  393SOL    HW110788   2.418   1.490   1.965 -2.2944  0.2957 -0.2341
  393SOL    HW210789   2.444   1.375   2.077  0.6434  1.4652  0.3238
  394SOL     OW10790   3.955   3.019   1.082  0.4029 -0.3915 -0.5393
  394SOL    HW110791   3.923   2.925   1.094 -0.2988 -0.5577 -3.3338
  394SOL    HW210792   4.055   3.021   1.084  0.3908 -0.8605  1.5772
  395SOL     OW10793   2.966  10.201   0.436 -0.0062 -0.2596  0.2726
  395SOL    HW110794   3.032  10.250   0.493  0.1032 -1.0443  0.8354
  395SOL    HW210795   3.007  10.183   0.347 -0.4355  1.6004 -0.3143
  396SOL     OW10796   3.229  10.575   2.187  0.5925  0.4075  0.2636
  396SOL    HW110797   3.297  10.603   2.255  0.8820  0.8131 -0.1898
  396SOL    HW210798   3.227  10.642   2.112 -0.9150  0.8728  0.6925
  397SOL     OW10799   2.180   1.202   1.976  0.0386  0.1744  0.3778
  397SOL    HW110800   2.254   1.268   1.967  1.5183 -1.3620  1.0466
  397SOL    HW210801   2.180   1.140   1.898  0.9321 -1.2739  1.5082
  398SOL     OW10802   2.264  10.512   2.308 -0.6717 -0.2605 -0.2012
  398SOL    HW110803   2.197  10.572   2.264  2.2632  0.9897 -3.2070
  398SOL    HW210804   2.311  10.458   2.238 -0.6102 -3.3147  2.1368
  399SOL     OW10805   4.177   1.209   1.942  0.0584  0.0740 -0.0692
  399SOL    HW110806   4.225   1.275   1.884  1.9472 -1.0946  0.0871
  399SOL    HW210807   4.227   1.199   2.028 -0.5250 -1.1363  0.1336
  400SOL     OW10808   2.626   1.455   1.748 -0.1922  0.5543 -0.0068
  400SOL    HW110809   2.553   1.400   1.706 -0.5968  1.7296 -0.8587
  400SOL    HW210810   2.586   1.520   1.812  0.0806  1.3698 -0.6597
  401SOL     OW10811   3.753   0.820   0.283 -0.1022  0.6958  0.1731
  401SOL    HW110812   3.822   0.873   0.233 -0.9923  0.7406 -1.0169
  401SOL    HW210813   3.747   0.854   0.377  0.9321  1.2112  0.0653
  402SOL     OW10814   2.729   1.193   1.825 -0.1784 -0.0920 -0.2673
  402SOL    HW110815   2.697   1.172   1.733 -2.5174 -0.4035  0.5654
  402SOL    HW210816   2.720   1.291   1.842  0.9689  0.0784 -0.6219
  403SOL     OW10817   2.037   0.799   1.466 -0.0375 -0.3521  0.4448
  403SOL    HW110818   1.964   0.864   1.445 -0.2398 -0.1783  1.6673
  403SOL    HW210819   2.002   0.727   1.526  0.3519 -1.2397 -0.3881
  404SOL     OW10820   3.323   1.214   2.346 -0.3886 -0.6246  0.3852
  404SOL    HW110821   3.419   1.228   2.321 -0.3019 -0.3438  0.8528
  404SOL    HW210822   3.277   1.303   2.351 -0.5987 -0.7365  0.4535
  405SOL     OW10823   2.738   0.921   1.029  0.1240  0.0474 -0.7523
  405SOL    HW110824   2.736   0.859   0.951  0.7065  1.2242 -1.7153
  405SOL    HW210825   2.826   0.914   1.075 -0.2655 -0.7396 -0.1078
  406SOL     OW10826   2.131   1.613   2.067  0.0405 -0.1063 -0.1300
  406SOL    HW110827   2.064   1.642   1.999  0.4229  0.8870 -0.0945
  406SOL    HW210828   2.185   1.537   2.030  0.9486  1.1020 -1.3599
  407SOL     OW10829   1.762  10.564   1.825 -0.1801  0.0676 -0.5516
  407SOL    HW110830   1.824  10.620   1.879 -1.7754  0.0397  1.3800
  407SOL    HW210831   1.693  10.523   1.885  0.0665 -2.7936 -2.1145
  408SOL     OW10832   4.001   1.564   1.990  0.2551  0.1051 -0.2115
  408SOL    HW110833   4.067   1.541   2.061 -1.9931  0.1920  1.9623
  408SOL    HW210834   3.951   1.482   1.963  0.3868  0.2660 -0.9643
  409SOL     OW10835   2.490   2.031   1.823 -0.5507 -0.0394  0.4336
  409SOL    HW110836   2.580   1.989   1.840 -0.4648 -0.0374  0.0061
  409SOL    HW210837   2.499   2.097   1.748 -0.5669  1.1419  1.4424
  410SOL     OW10838   3.705  10.385   1.762  0.7917 -0.1878  0.0320
  410SOL    HW110839   3.685  10.287   1.768 -1.6329  0.2364 -0.3616
  410SOL    HW210840   3.766  10.402   1.685  0.5260 -1.2900 -0.4442
  411SOL     OW10841   4.191   2.506   2.267 -0.1641  0.3713 -0.6162
  411SOL    HW110842   4.111   2.542   2.219  0.4639 -1.1918 -2.9377
  411SOL    HW210843   4.183   2.406   2.274  1.4368  0.2297 -0.6314
  412SOL     OW10844   3.150   0.664   1.173  0.6047 -0.0405 -0.5613
  412SOL    HW110845   3.057   0.667   1.210  1.5750 -1.2558  2.1902
  412SOL    HW210846   3.194   0.753   1.186 -0.1974  0.5702 -1.9730
  413SOL     OW10847   1.981   1.097  -0.095 -0.2348 -0.4641 -0.2140
  413SOL    HW110848   1.992   1.173  -0.159 -1.3931 -0.4176 -0.3695
  413SOL    HW210849   1.976   1.133  -0.001 -1.7541 -0.2493 -0.3624
  414SOL     OW10850   4.026   2.219   0.460  0.1866  0.2651  0.1295
  414SOL    HW110851   3.989   2.228   0.368  0.1248 -0.2199  0.1017
  414SOL    HW210852   3.980   2.283   0.521  0.9662  1.3205 -0.3903
  415SOL     OW10853   2.734  10.079   2.262  0.3311  0.1876 -0.1863
  415SOL    HW110854   2.696   9.987   2.262 -0.2579  0.4286  0.9385
  415SOL    HW210855   2.682  10.137   2.324  0.2059  1.4880 -1.4740
  416SOL     OW10856   2.169   1.630   0.474  0.3460 -0.0609  0.2977
  416SOL    HW110857   2.242   1.612   0.408  0.8549  1.6033  0.3934
  416SOL    HW210858   2.084   1.588   0.441  1.3272 -2.0092  0.1876
  417SOL     OW10859   2.986  10.209  -0.109 -0.1198  0.4008 -0.2137
  417SOL    HW110860   3.005  10.247  -0.200 -0.2453 -2.2644 -1.3726
  417SOL    HW210861   3.058  10.145  -0.084 -0.3116  0.8091  1.4199
  418SOL     OW10862   3.147   1.029  -0.201  0.2090  0.5028  0.2679
  418SOL    HW110863   3.107   0.984  -0.281 -2.1507  0.2293  1.5330
  418SOL    HW210864   3.219   1.091  -0.229  0.2025 -0.4598 -1.9510
  419SOL     OW10865   2.602   2.213   0.182 -0.2448 -0.4159  0.1260
  419SOL    HW110866   2.603   2.152   0.103  1.3289 -1.8448  1.2217
  419SOL    HW210867   2.526   2.188   0.242 -0.3039 -0.5370  0.0028
  420SOL     OW10868   2.316   0.789   0.272 -0.7811 -0.2410  0.5531
  420SOL    HW110869   2.410   0.819   0.287 -0.9580 -0.0952  1.4266
  420SOL    HW210870   2.312   0.689   0.276 -0.4263 -0.3210 -0.9409
  421SOL     OW10871   3.677   2.845   0.051  0.3337  0.0456  0.0780
  421SOL    HW110872   3.637   2.758   0.081 -1.4783  0.9704  0.4213
  421SOL    HW210873   3.664   2.855  -0.048  0.7443 -0.1770  0.0015
  422SOL     OW10874   4.432   1.741   0.065 -0.7424 -0.5169 -0.2601
  422SOL    HW110875   4.518   1.734   0.014  0.4277 -0.5973  1.6969
  422SOL    HW210876   4.424   1.833   0.105 -1.2793 -0.7190  0.1017
  423SOL     OW10877   3.928   1.258   0.971 -0.3910 -0.2625 -0.7492
  423SOL    HW110878   3.926   1.291   1.065 -2.8764 -1.8136 -0.2113
  423SOL    HW210879   3.907   1.333   0.908  0.5787  0.6136 -0.0403
  424SOL     OW10880   3.581   1.629  -0.021 -0.6806  0.0808 -0.4645
  424SOL    HW110881   3.529   1.708  -0.052 -1.0938 -1.4271 -3.9638
  424SOL    HW210882   3.678   1.653  -0.015 -0.6051  0.5231 -2.9269
  425SOL     OW10883   2.910   1.055   1.964  0.2236  0.0475  0.3560
  425SOL    HW110884   2.968   1.113   2.021  0.9158 -0.7354  0.4717
  425SOL    HW210885   2.850   1.112   1.908  0.6384  0.8586  0.7250
  426SOL     OW10886   2.185   1.880   1.795  0.2852  0.2578  0.0459
  426SOL    HW110887   2.263   1.931   1.760  0.6854 -0.9056 -0.7911
  426SOL    HW210888   2.201   1.858   1.892  0.2072  1.4963  0.3534
  427SOL     OW10889   4.178   1.852  -0.043 -0.3151 -0.3841  0.5217
  427SOL    HW110890   4.088   1.821  -0.072  0.6980 -2.3190 -0.6561
  427SOL    HW210891   4.232   1.774  -0.013  2.8416 -0.1518 -4.0188
  428SOL     OW10892   2.398   1.951   1.047 -0.7194  0.6351  0.1327
  428SOL    HW110893   2.481   2.004   1.062 -1.7831  2.6129 -0.7692
  428SOL    HW210894   2.354   1.933   1.134  0.4142 -0.0430  0.5772
  429SOL     OW10895   2.360   0.694   1.145 -0.2689  1.2259 -0.2782
  429SOL    HW110896   2.307   0.768   1.186  0.8761  1.9426 -0.0619
  429SOL    HW210897   2.356   0.701   1.045  0.0650  1.7661 -0.2602
  430SOL     OW10898   1.875  10.616   1.584 -0.2045  0.2952 -0.3182
  430SOL    HW110899   1.869  10.564   1.669  0.2443  0.1110 -0.3953
  430SOL    HW210900   1.820  10.572   1.513  0.3749 -0.2108 -0.4520
  431SOL     OW10901   3.045   2.575   1.592 -0.1422 -0.1715  0.7748
  431SOL    HW110902   3.079   2.525   1.672  0.1175 -0.4383  0.4977
  431SOL    HW210903   3.088   2.539   1.510  0.2485  0.6935  0.5974
  10.00000  10.00000   2.87800
