Written by MDAnalysis
10386
    1CHTO  H203    1   3.971   6.147   0.690  0.5781  0.5991 -0.2479
    1CHTO   O82    2   4.012   6.064   0.678 -0.6948 -0.0552 -0.1717
    1CHTO  C123    3   4.120   6.048   0.772  0.9086 -0.1934  0.1461
    1CHTO  H227    4   4.078   6.012   0.868 -0.9283 -1.0053 -0.9246
    1CHTO   O77    5   4.196   5.936   0.717  0.2091  0.9212  0.0187
    1CHTO  C118    6   4.303   5.902   0.800 -0.2697 -0.5247  0.0836
    1CHTO  H222    7   4.259   5.884   0.899  0.3095 -1.7074  0.1297
    1CHTO  C125    8   4.345   5.764   0.739 -0.2809 -0.0417 -0.6660
    1CHTO   O84    9   4.410   5.773   0.609 -0.0456 -0.5883 -0.1619
    1CHTO  H205   10   4.482   5.833   0.621 -0.3797 -0.6558  2.2928
    1CHTO  C114   11   4.419   6.005   0.794  0.6382  0.3772 -0.0165
    1CHTO  H218   12   4.455   6.011   0.692 -0.0038 -0.2601 -0.2812
    1CHTO  C116   13   4.361   6.139   0.840  0.3651 -0.0380  0.6081
    1CHTO  H220   14   4.366   6.148   0.951 -1.3779  0.1925  0.6790
    1CHTO   O79   15   4.450   6.235   0.781  0.2761 -0.0163  0.2060
    1CHTO  H201   16   4.538   6.211   0.804  0.6369  1.6765  0.6727
    1CHTO  C120   17   4.216   6.161   0.784  0.0087 -0.2335  0.2563
    1CHTO  H224   18   4.235   6.188   0.678  0.0062  1.2878  0.6297
    1CHTO   N21   19   4.160   6.280   0.852  0.7921  0.1986 -0.4748
    1CHTO  H211   20   4.186   6.366   0.791 -0.3103 -0.1341 -1.4525
    1CHTO  H212   21   4.203   6.282   0.950  0.8620  0.6305 -0.5135
    1CHTO   O75   22   4.529   5.964   0.875 -0.4384 -0.4788  0.3746
    1CHTO  C112   23   4.639   5.886   0.789 -0.0770 -0.3521  0.5729
    1CHTO  H216   24   4.608   5.870   0.685  0.3606 -6.0077  1.1522
    1CHTO   O73   25   4.659   5.756   0.855  0.4471 -0.2306  0.1100
    1CHTO  C113   26   4.746   5.659   0.785 -0.1658  1.1305  0.1983
    1CHTO  H217   27   4.704   5.637   0.684 -1.5412 -0.0031  0.9882
    1CHTO  C124   28   4.732   5.526   0.868 -0.6830 -0.1699  0.2030
    1CHTO   O83   29   4.800   5.414   0.795 -0.2462 -0.6420  0.6439
    1CHTO  H204   30   4.891   5.416   0.818  0.5588 -3.3439 -2.0850
    1CHTO  C109   31   4.889   5.717   0.780 -0.7711 -0.1965  0.5004
    1CHTO  H213   32   4.932   5.712   0.882 -0.2410  1.0931  0.3519
    1CHTO  C110   33   4.890   5.867   0.728 -0.1799  0.4656 -0.2571
    1CHTO  H214   34   4.877   5.861   0.620 -3.1679  0.7922  0.0577
    1CHTO   O78   35   5.023   5.922   0.749  0.3586 -0.0712  0.2168
    1CHTO  H200   36   5.020   6.002   0.797  1.6933 -0.0908  0.3531
    1CHTO  C111   37   4.780   5.958   0.796 -0.2889  0.5699  0.3657
    1CHTO  H215   38   4.805   5.965   0.903 -0.1156 -1.6348  0.4914
    1CHTO   N19   39   4.770   6.098   0.739 -0.4940 -0.1957 -0.4996
    1CHTO  H207   40   4.772   6.104   0.631 -0.6445  2.8405 -0.3701
    1CHTO  H208   41   4.845   6.158   0.787  0.1333 -0.4288 -1.1761
    1CHTO   O74   42   4.975   5.637   0.691  0.2285 -0.1849  0.3637
    1CHTO  C115   43   5.122   5.626   0.730 -0.7164  0.1769 -0.3119
    1CHTO  H219   44   5.166   5.722   0.759 -0.3023  0.1110 -0.7218
    1CHTO   O76   45   5.152   5.519   0.865 -0.5195  0.2442 -0.1873
    1CHTO  C122   46   5.136   5.388   0.819  0.1848 -0.1718 -0.4411
    1CHTO  H226   47   5.042   5.385   0.764 -0.1202  3.0697 -0.1751
    1CHTO  C126   48   5.123   5.276   0.938  0.2307 -0.5924  0.6000
    1CHTO   O85   49   4.997   5.274   0.998  0.3667 -0.4319 -0.6509
    1CHTO  H206   50   4.993   5.326   1.076  0.1226 -0.1012 -0.8805
    1CHTO  C121   51   5.251   5.348   0.716 -0.1363 -0.0189 -0.1171
    1CHTO  H225   52   5.334   5.299   0.770  3.4386  0.8149 -4.5312
    1CHTO   O81   53   5.209   5.262   0.612 -0.4001 -0.6388 -0.0799
    1CHTO  H202   54   5.176   5.181   0.645  0.0199 -0.4951  0.6872
    1CHTO  C119   55   5.312   5.482   0.644  0.4159  0.0130 -0.6155
    1CHTO  H223   56   5.368   5.544   0.715 -0.0744  0.3201 -0.4929
    1CHTO  C117   57   5.191   5.570   0.603 -0.1646  0.2650 -1.0510
    1CHTO  H221   58   5.115   5.514   0.548 -1.6995  0.2656  0.9928
    1CHTO   N20   59   5.229   5.686   0.516 -0.0155  0.7762  0.2957
    1CHTO  H209   60   5.332   5.714   0.533  0.5658 -2.1391  1.8881
    1CHTO  H210   61   5.217   5.652   0.414  1.2955 -1.3094  0.8100
    1CHTO   O80   62   5.430   5.460   0.528 -0.4630  0.4172  0.2841
    1CHTO  C103   63   5.562   5.374   0.558 -0.8699  0.0026 -0.5726
    1CHTO  H190   64   5.596   5.386   0.661 -0.0201  1.1535 -0.9668
    1CHTO  C101   65   5.566   5.220   0.532 -0.6349  0.0689 -0.3957
    1CHTO  H188   66   5.532   5.210   0.429  0.2228 -1.3910 -0.5596
    1CHTO   O68   67   5.467   5.141   0.636 -0.1254  0.3251  0.1903
    1CHTO  H168   68   5.477   5.049   0.622 -1.2147  0.5914 -2.5986
    1CHTO   C99   69   5.713   5.157   0.541 -0.0141 -0.3349 -0.3517
    1CHTO  H186   70   5.740   5.159   0.648  1.3858 -0.0977 -0.7013
    1CHTO   N17   71   5.712   5.010   0.504  0.5794 -0.4260  1.1465
    1CHTO  H174   72   5.749   4.946   0.583  4.1778 -0.2534 -0.3080
    1CHTO  H175   73   5.745   4.975   0.407 -0.4811  1.2743  0.1445
    1CHTO   C97   74   5.816   5.240   0.460  0.1862  0.1912  0.4179
    1CHTO  H184   75   5.789   5.227   0.354  0.6056  0.8434  0.2281
    1CHTO   O64   76   5.804   5.383   0.494 -0.0649 -0.4357  0.3360
    1CHTO  C104   77   5.672   5.440   0.469 -0.1222 -0.0498 -0.4399
    1CHTO  H191   78   5.649   5.424   0.363  0.6530  0.5162 -0.7014
    1CHTO  C108   79   5.687   5.597   0.486  0.1861  0.6381 -0.4322
    1CHTO   O71   80   5.726   5.644   0.618 -0.0818  0.1279  0.1511
    1CHTO  H171   81   5.715   5.737   0.626  0.7964  0.3875 -1.5533
    1CHTO   O62   82   5.950   5.191   0.486 -0.1953 -0.0618  0.0635
    1CHTO   C91   83   6.050   5.198   0.382 -0.7612 -0.0991  0.0271
    1CHTO  H178   84   6.020   5.262   0.300  1.3077  1.4501  0.4428
    1CHTO   C92   85   6.064   5.049   0.324  0.0333 -0.3334  0.6561
    1CHTO  H179   86   6.081   4.979   0.407 -2.3556 -2.9609 -1.0058
    1CHTO   O66   87   5.936   5.009   0.275  0.3714 -0.3322  0.0457
    1CHTO  H166   88   5.910   5.060   0.201  1.3119 -3.1623 -2.3527
    1CHTO   C93   89   6.184   5.033   0.235  0.2357  0.5322 -0.3198
    1CHTO  H180   90   6.173   5.096   0.145  0.0479 -0.9566 -1.3686
    1CHTO   N16   91   6.207   4.899   0.184  0.2347  0.0962 -0.5527
    1CHTO  H172   92   6.294   4.849   0.224  1.1535  1.5484 -0.7132
    1CHTO  H173   93   6.198   4.892   0.077  0.2236 -0.3096 -0.5275
    1CHTO   C94   94   6.310   5.094   0.312 -0.3731  0.0888 -0.1527
    1CHTO  H181   95   6.330   5.040   0.404 -0.0476 -2.1168 -1.4742
    1CHTO   O61   96   6.300   5.233   0.342  0.7034  0.7247 -0.3497
    1CHTO   C95   97   6.192   5.265   0.431  0.2256  0.6471 -0.7962
    1CHTO  H182   98   6.211   5.220   0.528 -2.2870  2.2636  0.5021
    1CHTO  C106   99   6.186   5.419   0.428  0.2536 -0.5033  0.3467
    1CHTO   O69  100   6.099   5.469   0.533  0.1303  0.1415  0.4876
    1CHTO  H169  101   6.094   5.563   0.530  0.4315  0.1127 -1.7259
    1CHTO   O63  102   6.455   5.080   0.215 -0.3875 -0.0515 -0.3285
    1CHTO   C96  103   6.583   5.131   0.284  0.6773  0.0870  1.2407
    1CHTO  H183  104   6.573   5.239   0.294 -2.8894  0.3459 -3.3752
    1CHTO   C98  105   6.707   5.099   0.195  0.0901  0.2475 -0.0321
    1CHTO  H185  106   6.674   5.123   0.093 -0.3715 -1.0250 -0.1858
    1CHTO   O67  107   6.828   5.179   0.229  0.3540 -0.6164  0.0811
    1CHTO  H167  108   6.839   5.248   0.166 -0.0069 -1.4411 -0.9003
    1CHTO  C102  109   6.755   4.940   0.209 -0.2251  0.4282  0.0109
    1CHTO  H189  110   6.861   4.935   0.182 -0.5208 -2.1807 -0.8799
    1CHTO   N18  111   6.690   4.855   0.111 -0.2489 -0.3958 -0.0353
    1CHTO  H176  112   6.731   4.755   0.114 -0.8139 -0.6173  0.3779
    1CHTO  H177  113   6.583   4.860   0.119 -0.2052  0.5413 -0.0166
    1CHTO  C105  114   6.733   4.878   0.350 -0.3698  0.3756  0.0556
    1CHTO  H192  115   6.722   4.770   0.340  1.7791 -0.1732  3.0419
    1CHTO   O65  116   6.615   4.924   0.415 -0.5763 -0.2882 -0.7637
    1CHTO  C100  117   6.596   5.071   0.427 -0.5402 -0.3046 -0.4200
    1CHTO  H187  118   6.500   5.089   0.478 -0.7845 -0.5187 -0.8023
    1CHTO  C107  119   6.700   5.145   0.503 -0.3014 -0.4344 -0.7071
    1CHTO   O70  120   6.703   5.087   0.637  0.1785 -0.8019 -0.0479
    1CHTO  H170  121   6.678   5.160   0.691  0.1927 -0.4648 -0.4982
    1CHTO   O57  122   6.871   4.907   0.450  0.0576  0.6222 -0.5270
    1CHTO   C85  123   6.995   4.837   0.439  0.5280 -0.4384  0.6426
    1CHTO  H157  124   7.051   4.854   0.345 -0.7881  0.9547  0.0836
    1CHTO   C83  125   6.966   4.677   0.437  0.2679 -0.2178 -0.2481
    1CHTO  H155  126   6.900   4.661   0.352 -1.4179  0.6731  0.8729
    1CHTO   O56  127   6.892   4.648   0.552 -0.2384  0.1117 -0.4016
    1CHTO  H135  128   6.951   4.675   0.620  0.7161  0.3687 -1.3095
    1CHTO   C81  129   7.097   4.588   0.419 -0.3248 -0.1936 -0.1612
    1CHTO  H153  130   7.141   4.620   0.325 -1.9069  0.9659 -0.5432
    1CHTO   N14  131   7.082   4.440   0.405  0.0864  0.0381  0.1493
    1CHTO  H141  132   6.997   4.409   0.347  0.4132 -1.8291  0.6172
    1CHTO  H142  133   7.170   4.389   0.371 -0.5769 -0.9028 -0.1761
    1CHTO   C79  134   7.195   4.626   0.538 -0.1791 -0.3289 -0.2800
    1CHTO  H151  135   7.293   4.585   0.512 -0.4365 -0.4785 -1.0413
    1CHTO   O52  136   7.208   4.773   0.553  0.1050 -0.3022 -0.1239
    1CHTO   C86  137   7.086   4.858   0.563  0.2761  0.0695 -0.3722
    1CHTO  H158  138   7.029   4.833   0.655 -2.4406 -0.3337 -2.0956
    1CHTO   C90  139   7.146   5.002   0.582 -1.0265  0.2370 -0.1215
    1CHTO   O60  140   7.033   5.090   0.606  0.6710 -0.2426 -0.2265
    1CHTO  H138  141   7.066   5.177   0.618 -1.6319  0.5785  0.4169
    1CHTO   O50  142   7.156   4.566   0.663 -0.3066 -0.0345 -0.4088
    1CHTO   C73  143   7.185   4.467   0.762 -0.5465  0.4343  0.6100
    1CHTO  H145  144   7.241   4.378   0.729 -0.6968  0.2866  0.7501
    1CHTO   C74  145   7.055   4.409   0.828 -0.3927 -0.1647  0.4408
    1CHTO  H146  146   7.000   4.365   0.743  0.1488 -3.0196  1.5148
    1CHTO   O54  147   7.075   4.308   0.934  0.3677  0.1970 -0.6359
    1CHTO  H133  148   6.999   4.304   0.988  0.8154 -0.1760 -0.0219
    1CHTO   C75  149   6.980   4.533   0.889 -0.1713  0.1545 -0.5748
    1CHTO  H147  150   6.964   4.606   0.809 -3.2612 -0.8108 -0.9112
    1CHTO   N13  151   6.842   4.501   0.928  0.1356 -0.2016 -0.3377
    1CHTO  H139  152   6.768   4.531   0.855 -0.5898  1.1139  0.9302
    1CHTO  H140  153   6.839   4.537   1.029 -1.0835 -0.7884 -0.1636
    1CHTO   C76  154   7.074   4.599   1.007  0.1955 -0.5374 -0.1325
    1CHTO  H148  155   7.091   4.523   1.084 -1.2418 -0.3889  0.3619
    1CHTO   O49  156   7.196   4.638   0.940 -0.5798 -0.2306 -0.0252
    1CHTO   C77  157   7.268   4.531   0.880 -0.2968  0.0430  0.2266
    1CHTO  H149  158   7.293   4.455   0.955 -2.5097  0.7027  1.7072
    1CHTO   C88  159   7.401   4.582   0.822 -0.2691 -0.0622 -0.0258
    1CHTO   O58  160   7.498   4.455   0.763 -0.3838  0.0697 -0.8754
    1CHTO  H136  161   7.576   4.496   0.733 -0.5127 -0.1581 -1.5301
    1CHTO   O51  162   7.017   4.742   1.079 -0.0535 -0.3905  0.4147
    1CHTO   C78  163   7.044   4.874   1.002  0.2769  0.7314  0.1911
    1CHTO  H150  164   7.069   4.849   0.897 -0.2627  1.5861 -0.1483
    1CHTO   C80  165   7.153   4.971   1.070  0.0529 -0.1433  0.1783
    1CHTO  H152  166   7.121   4.991   1.174 -2.1823 -3.1713  0.1407
    1CHTO   O55  167   7.280   4.898   1.074 -0.8176  0.1846  0.0340
    1CHTO  H134  168   7.318   4.907   1.159  0.2831  0.2383 -0.4510
    1CHTO   C84  169   7.169   5.099   0.982  0.1824  0.0764 -0.1913
    1CHTO  H156  170   7.181   5.068   0.879 -0.9386 -1.5166  0.1453
    1CHTO   N15  171   7.285   5.187   1.030 -0.0320  0.1592  0.0270
    1CHTO  H143  172   7.266   5.232   1.126  0.9114 -0.0826  0.3347
    1CHTO  H144  173   7.310   5.264   0.960  0.4440  0.5574  0.6230
    1CHTO   C87  174   7.032   5.165   0.983 -0.1656 -0.0462 -0.4510
    1CHTO  H159  175   7.009   5.178   1.088 -0.3949  2.1919 -0.7468
    1CHTO   O53  176   6.939   5.074   0.916 -0.3231  0.4111 -0.0924
    1CHTO   C82  177   6.915   4.955   0.994 -0.0467 -0.1301 -0.3015
    1CHTO  H154  178   6.871   4.980   1.090 -0.1457 -1.0189 -0.1190
    1CHTO   C89  179   6.806   4.865   0.921 -0.0636 -0.2961  0.2369
    1CHTO   O59  180   6.682   4.938   0.919 -0.3694 -1.1161 -0.0627
    1CHTO  H137  181   6.626   4.881   0.968 -2.0149 -1.5804 -2.4121
    1CHTO   O45  182   7.027   5.304   0.897  0.2710  0.4058 -0.5775
    1CHTO   C67  183   6.925   5.399   0.921  0.1171 -0.2752 -0.1601
    1CHTO  H124  184   6.962   5.495   0.886 -1.1242  0.2062 -0.1751
    1CHTO   C65  185   6.793   5.360   0.842 -0.0435 -0.2161 -0.3261
    1CHTO  H122  186   6.797   5.251   0.842 -0.1074 -0.2298 -2.4355
    1CHTO   O44  187   6.815   5.413   0.708  0.2169 -0.2484  0.2734
    1CHTO  H102  188   6.800   5.505   0.715  1.0600 -0.1670  1.1293
    1CHTO   C63  189   6.657   5.391   0.914  0.4196  0.1996  0.5585
    1CHTO  H120  190   6.633   5.303   0.974  2.3187 -0.5694  0.2314
    1CHTO   N11  191   6.532   5.399   0.829 -0.5555  0.6205 -0.0194
    1CHTO  H108  192   6.507   5.503   0.830 -0.9580  0.5173  0.7612
    1CHTO  H109  193   6.559   5.392   0.726 -0.4817  1.1733 -0.0393
    1CHTO   C61  194   6.680   5.512   1.016 -0.3849  0.3501 -0.4031
    1CHTO  H118  195   6.595   5.520   1.085  0.0530  0.6032  0.1080
    1CHTO   O40  196   6.800   5.520   1.095  0.2001 -0.0756  0.1247
    1CHTO   C68  197   6.895   5.410   1.081 -0.8229 -0.3395  0.2017
    1CHTO  H125  198   6.848   5.322   1.129 -0.4587  0.6791  2.4816
    1CHTO   C72  199   7.031   5.438   1.149  0.6382  0.4365  0.4266
    1CHTO   O48  200   7.023   5.459   1.287 -0.2953  0.3191 -0.0238
    1CHTO  H105  201   7.049   5.549   1.298 -0.4332  0.2894  0.5501
    1CHTO   O38  202   6.679   5.639   0.958 -0.1184 -0.0217  0.5734
    1CHTO   C55  203   6.597   5.746   1.008  0.4195  0.5138  0.0681
    1CHTO  H112  204   6.587   5.736   1.117 -3.1785 -4.0158 -0.5492
    1CHTO   C56  205   6.457   5.749   0.941  0.4023  0.3914  0.2613
    1CHTO  H113  206   6.466   5.726   0.834 -0.4148  0.9193  0.0788
    1CHTO   O42  207   6.376   5.645   0.997 -0.3339 -0.0633 -0.3897
    1CHTO  H100  208   6.310   5.601   0.946 -0.0911 -0.2661 -0.5341
    1CHTO   C57  209   6.382   5.892   0.956 -0.0195 -0.3280  0.2099
    1CHTO  H114  210   6.346   5.901   1.059 -0.3029 -1.4437  0.2157
    1CHTO   N10  211   6.257   5.905   0.869 -1.1752 -0.0090  0.3950
    1CHTO  H106  212   6.212   5.809   0.845 -0.0768 -0.9842  2.0875
    1CHTO  H107  213   6.182   5.971   0.910  0.2496  2.2093 -0.5317
    1CHTO   C58  214   6.483   6.004   0.926 -0.4581 -0.6788 -0.2297
    1CHTO  H115  215   6.519   5.988   0.823  1.5665 -1.4552  0.5682
    1CHTO   O37  216   6.589   5.990   1.021  0.3447 -0.7777 -0.3694
    1CHTO   C59  217   6.672   5.878   0.979 -0.2618 -0.0067  0.3449
    1CHTO  H116  218   6.697   5.893   0.874  0.2499  0.4478  0.5293
    1CHTO   C70  219   6.805   5.890   1.061 -0.1051  0.4732  0.1481
    1CHTO   O46  220   6.911   5.808   1.012 -0.2303 -0.1228 -0.9450
    1CHTO  H103  221   6.925   5.735   1.069 -2.2876  0.6082  0.5737
    1CHTO   O39  222   6.426   6.166   0.943  0.5626 -1.0065 -0.0352
    1CHTO   C60  223   6.524   6.260   0.905 -0.4016 -0.7835  0.9726
    1CHTO  H117  224   6.621   6.225   0.938  0.6505  0.7762 -0.4264
    1CHTO   C62  225   6.528   6.296   0.753  0.2448  0.2127  0.3000
    1CHTO  H119  226   6.552   6.204   0.697 -1.1505  0.1026 -0.1190
    1CHTO   O43  227   6.393   6.342   0.723  0.0240  0.1169  0.5116
    1CHTO  H101  228   6.387   6.324   0.632 -1.2466 -0.9134  0.7896
    1CHTO   C66  229   6.646   6.402   0.722  0.7816  0.0165  0.4554
    1CHTO  H123  230   6.738   6.356   0.757  1.5804  0.8280 -0.5103
    1CHTO   N12  231   6.660   6.429   0.577  0.1560 -0.5285  0.5919
    1CHTO  H110  232   6.755   6.397   0.538  0.0926  1.6188 -1.4370
    1CHTO  H111  233   6.651   6.527   0.532  0.6368 -0.1992  1.2049
    1CHTO   C69  234   6.611   6.532   0.798 -0.2185 -0.0539  0.1158
    1CHTO  H126  235   6.514   6.575   0.765  0.2272  1.7131  1.0748
    1CHTO   O41  236   6.595   6.495   0.953 -0.2101 -0.6520  0.2424
    1CHTO   C64  237   6.498   6.386   0.983  0.4783 -0.9458  0.5036
    1CHTO  H121  238   6.396   6.414   0.949  1.9098  1.5928 -1.9742
    1CHTO   C71  239   6.499   6.359   1.136 -0.5619  0.6054  0.8180
    1CHTO   O47  240   6.438   6.462   1.218 -0.0740 -0.0076  0.0074
    1CHTO  H104  241   6.436   6.431   1.307 -2.5679  1.5848  0.5510
    1CHTO   O34  242   6.696   6.639   0.780 -0.1875  0.4503 -0.4123
    1CHTO   C49  243   6.801   6.737   0.827  0.8829 -0.1857 -0.7631
    1CHTO   H91  244   6.804   6.813   0.750 -0.2772  1.5970  0.9043
    1CHTO   C47  245   6.940   6.670   0.848  0.1158 -0.1522  0.3226
    1CHTO   H89  246   6.972   6.658   0.743 -2.1920  0.8629 -0.5265
    1CHTO   O33  247   6.923   6.543   0.908 -0.8649  0.3551  0.4153
    1CHTO   H70  248   6.935   6.469   0.850 -3.2505  1.2035 -1.2396
    1CHTO   C45  249   7.037   6.763   0.937  0.7196 -0.0337  0.5282
    1CHTO   H87  250   7.034   6.715   1.036 -3.4158 -2.7534 -0.7728
    1CHTO    N8  251   7.176   6.754   0.883 -0.0558  0.1560  0.2335
    1CHTO   H75  252   7.213   6.655   0.860 -1.7988  0.0940 -2.6226
    1CHTO   H76  253   7.175   6.803   0.787  1.1060 -0.1758  0.0411
    1CHTO   C43  254   6.976   6.911   0.969 -0.5116  0.0666  0.9225
    1CHTO   H85  255   7.043   6.952   1.045  2.6948 -1.0502 -1.1976
    1CHTO   O29  256   6.843   6.912   1.012  0.4114 -0.0952  0.3901
    1CHTO   C50  257   6.755   6.806   0.958 -0.2078 -0.6238 -0.2022
    1CHTO   H92  258   6.740   6.733   1.039  1.1739 -0.3754  0.2779
    1CHTO   C54  259   6.611   6.870   0.942 -0.9436  0.7896 -0.0995
    1CHTO   O36  260   6.548   6.877   1.070  0.2344 -0.1512 -0.2754
    1CHTO   H72  261   6.520   6.966   1.082 -1.1622 -0.6906  0.7309
    1CHTO   O27  262   6.989   7.003   0.860  0.2371  0.0531  0.3166
    1CHTO   C37  263   7.015   7.142   0.836 -1.0088  0.5917 -0.3107
    1CHTO   H79  264   6.967   7.203   0.913  0.7613 -0.9394  2.0594
    1CHTO   C38  265   7.172   7.155   0.835  0.1963  0.3072  0.3693
    1CHTO   H80  266   7.216   7.071   0.780 -4.3910 -1.3901 -0.9108
    1CHTO   O31  267   7.216   7.153   0.970  0.0199  0.0666 -0.1825
    1CHTO   H68  268   7.308   7.170   0.978 -0.3657  0.5168  4.5329
    1CHTO   C39  269   7.222   7.294   0.777 -0.0676 -0.6052 -0.4236
    1CHTO   H81  270   7.176   7.369   0.843  1.5452  0.2129 -0.2146
    1CHTO    N7  271   7.369   7.305   0.763  0.6273  0.2150 -0.3446
    1CHTO   H73  272   7.397   7.405   0.794  0.7158 -0.2836  1.2182
    1CHTO   H74  273   7.431   7.217   0.765 -1.1244 -1.0567 -1.2136
    1CHTO   C40  274   7.155   7.302   0.638  0.2423  0.9176 -0.5282
    1CHTO   H82  275   7.191   7.222   0.574 -1.0230  2.6522 -3.5774
    1CHTO   O26  276   7.015   7.302   0.649 -0.1362 -0.2529 -0.1774
    1CHTO   C41  277   6.953   7.178   0.699 -0.1212  0.6762  0.7149
    1CHTO   H83  278   6.986   7.108   0.620 -1.0224  0.4517  0.5295
    1CHTO   C52  279   6.800   7.186   0.715 -0.4505  0.4682  0.3021
    1CHTO   O35  280   6.742   7.071   0.726  0.0304 -0.0053 -0.3366
    1CHTO   H71  281   6.764   7.033   0.808  1.3002 -0.1287 -0.7271
    1CHTO   O28  282   7.184   7.422   0.561 -0.4361  0.0351  0.1856
    1CHTO   C42  283   7.171   7.421   0.411 -0.6150  0.0299 -0.6296
    1CHTO   H84  284   7.140   7.319   0.385  0.4199 -1.0081  2.0806
    1CHTO   C44  285   7.306   7.443   0.338 -0.0118  0.0481  0.4226
    1CHTO   H86  286   7.351   7.540   0.359  1.5453 -0.9920  2.0287
    1CHTO   O32  287   7.395   7.340   0.393 -0.5461  0.0109 -0.6557
    1CHTO   H69  288   7.396   7.331   0.486 -2.8454  0.3166 -0.5699
    1CHTO   C48  289   7.292   7.432   0.183 -0.2016  0.2339 -0.0724
    1CHTO   H90  290   7.303   7.328   0.150  2.3824 -0.6408  3.2256
    1CHTO    N9  291   7.413   7.484   0.121 -0.0963 -0.4667  0.2981
    1CHTO   H77  292   7.495   7.414   0.119 -2.8074 -3.7309  0.6174
    1CHTO   H78  293   7.446   7.586   0.140 -1.2933  0.2601 -1.3991
    1CHTO   C51  294   7.166   7.505   0.127 -0.0657 -0.1764 -0.1210
    1CHTO   H93  295   7.194   7.610   0.128  1.8106 -0.6713  0.9060
    1CHTO   O30  296   7.054   7.474   0.215 -0.2479 -0.1502 -0.0706
    1CHTO   C46  297   7.073   7.524   0.352  0.3328  0.1483  0.6301
    1CHTO   H88  298   7.126   7.619   0.342  3.8285 -1.7470  0.2831
    1CHTO   C53  299   6.941   7.533   0.436  0.3366  0.2025  0.5966
    1CHTO   O72  300   6.866   7.410   0.422  0.8545  1.1795 -0.0118
    1CHTO  H199  301   6.890   7.353   0.492 -1.3844  0.1643 -0.0569
    1CHTO   O22  302   7.141   7.461  -0.005  0.0720  0.1948  0.1552
    1CHTO   C31  303   7.023   7.496  -0.083  0.3144  0.2838  0.7318
    1CHTO   H59  304   6.952   7.539  -0.009 -0.7466  1.8652 -1.1555
    1CHTO   C29  305   7.039   7.598  -0.194 -0.1799  0.0302  0.3199
    1CHTO   H57  306   7.116   7.556  -0.261 -1.7864 -0.7528 -1.0710
    1CHTO   O21  307   7.092   7.719  -0.132  0.6867  0.5796  0.0485
    1CHTO   H37  308   7.025   7.761  -0.082  1.2891  0.6398  0.8089
    1CHTO   C27  309   6.911   7.631  -0.280  0.2634 -0.0924 -0.2616
    1CHTO   H55  310   6.832   7.676  -0.219 -0.5525 -0.6171 -0.9221
    1CHTO    N5  311   6.950   7.721  -0.394  0.3660 -0.1900 -0.5037
    1CHTO   H43  312   6.863   7.750  -0.450 -0.1835 -0.3160  0.2827
    1CHTO   H44  313   7.019   7.676  -0.464 -0.5854 -1.9071 -0.3738
    1CHTO   C25  314   6.843   7.504  -0.336  0.3764 -0.3536 -0.2560
    1CHTO   H53  315   6.900   7.455  -0.416 -0.8935  0.4189 -1.6496
    1CHTO   O17  316   6.823   7.411  -0.217  0.2932 -0.1975 -0.1513
    1CHTO   C32  317   6.944   7.376  -0.149 -0.0619 -0.5857  0.5591
    1CHTO   H60  318   7.015   7.331  -0.218 -2.1945 -2.1183 -0.6848
    1CHTO   C36  319   6.908   7.262  -0.047 -0.3285  0.4294 -0.8073
    1CHTO   O25  320   7.031   7.194  -0.003  0.8073  0.8131 -0.2606
    1CHTO   H40  321   7.025   7.179   0.089 -0.9205  1.2054 -0.2793
    1CHTO   O15  322   6.697   7.532  -0.394 -0.0698 -0.6445 -0.1244
    1CHTO   C19  323   6.615   7.434  -0.468 -0.0748  0.6102  0.1215
    1CHTO   H47  324   6.521   7.482  -0.498 -0.1647  0.9363  0.8987
    1CHTO   C20  325   6.684   7.372  -0.595 -0.5769  0.0991 -0.6053
    1CHTO   H48  326   6.776   7.321  -0.563  0.0063  0.9549 -0.8861
    1CHTO   O19  327   6.739   7.478  -0.670  0.2939 -0.5605  0.3143
    1CHTO   H35  328   6.800   7.450  -0.737 -2.9463 -2.6895 -1.9202
    1CHTO   C21  329   6.577   7.276  -0.667 -0.0595 -0.7013 -0.2437
    1CHTO   H49  330   6.506   7.338  -0.720  0.5151 -1.3576 -1.8006
    1CHTO    N4  331   6.645   7.202  -0.771 -0.3896  0.9245  0.4683
    1CHTO   H41  332   6.583   7.133  -0.826 -0.6207  2.2014 -0.8985
    1CHTO   H42  333   6.690   7.271  -0.841 -0.4373  0.9459  0.4590
    1CHTO   C22  334   6.511   7.180  -0.565 -0.5433  0.2805  0.1862
    1CHTO   H50  335   6.580   7.100  -0.538  1.5082  2.0081  0.1957
    1CHTO   O14  336   6.463   7.252  -0.454  0.5532 -0.5358  0.5927
    1CHTO   C23  337   6.570   7.313  -0.384 -0.3670  0.4099  0.6125
    1CHTO   H51  338   6.652   7.243  -0.366 -0.5777 -0.3880 -1.3626
    1CHTO   C34  339   6.513   7.340  -0.248 -0.3147 -0.4563 -1.2308
    1CHTO   O23  340   6.491   7.220  -0.174 -0.2076  0.2896 -0.1799
    1CHTO   H38  341   6.403   7.198  -0.201 -0.7808  0.9352  1.1101
    1CHTO   O16  342   6.389   7.120  -0.608 -0.3354  0.4528 -0.2241
    1CHTO   C24  343   6.399   6.950  -0.623 -0.1567 -0.0690  0.0956
    1CHTO   H52  344   6.492   6.919  -0.672  0.8185  2.6902  0.1431
    1CHTO   C26  345   6.282   6.925  -0.719 -0.5021  0.2932 -0.0938
    1CHTO   H54  346   6.198   6.989  -0.685 -0.3801  0.2579  0.2736
    1CHTO   O20  347   6.313   6.979  -0.851 -0.3548  0.2058  0.0983
    1CHTO   H36  348   6.254   7.051  -0.866 -0.9203  0.0397  1.4478
    1CHTO   C30  349   6.228   6.777  -0.733 -0.6702  0.1451 -0.5165
    1CHTO   H58  350   6.302   6.727  -0.797 -0.8506  0.0256 -0.6290
    1CHTO    N6  351   6.103   6.758  -0.806  0.4434 -0.1046 -0.4333
    1CHTO   H45  352   6.067   6.859  -0.820 -0.6442  0.0634  3.0967
    1CHTO   H46  353   6.115   6.707  -0.900  0.9451 -1.0835  0.1581
    1CHTO   C33  354   6.228   6.708  -0.593 -0.1802 -0.8767  0.5854
    1CHTO   H61  355   6.151   6.758  -0.532  0.9532 -0.5206  1.7386
    1CHTO   O18  356   6.358   6.731  -0.533 -1.0119 -0.6892  0.8926
    1CHTO   C28  357   6.384   6.867  -0.494  0.1903 -0.1150  0.3616
    1CHTO   H56  358   6.307   6.911  -0.430 -1.7963 -1.6331 -0.9051
    1CHTO   C35  359   6.521   6.868  -0.425  0.1809 -1.3147  0.0264
    1CHTO   O24  360   6.527   6.782  -0.311  0.3781  0.4563 -0.6255
    1CHTO   H39  361   6.528   6.689  -0.325 -0.2662  0.2382  0.7137
    1CHTO    O9  362   6.192   6.566  -0.589 -0.5023  0.4843  0.3404
    1CHTO   C13  363   6.114   6.521  -0.442 -0.5548  0.1309  0.3799
    1CHTO   H26  364   6.032   6.596  -0.434  1.3459  2.6776 -2.8275
    1CHTO   C11  365   6.227   6.541  -0.332 -0.2914 -0.2163 -0.2787
    1CHTO   H24  366   6.236   6.650  -0.317  1.2704 -0.4194  0.4394
    1CHTO    O8  367   6.359   6.486  -0.368  0.7452  0.0163  0.1888
    1CHTO    H3  368   6.368   6.393  -0.373  0.4491 -0.0081  0.1137
    1CHTO    C9  369   6.172   6.489  -0.193 -0.1281  0.2249  0.7726
    1CHTO   H22  370   6.074   6.538  -0.183 -0.8109 -0.8645 -0.4068
    1CHTO    N2  371   6.251   6.528  -0.076  0.3526  0.6397 -0.0127
    1CHTO   H10  372   6.254   6.636  -0.068  0.0830  0.7857 -1.7046
    1CHTO   H11  373   6.213   6.482   0.014  1.5668 -0.7117 -0.1862
    1CHTO    C7  374   6.141   6.334  -0.205 -0.1323 -0.4420  0.0291
    1CHTO   H20  375   6.089   6.306  -0.111 -0.8701 -1.4399 -0.6507
    1CHTO    O4  376   6.049   6.310  -0.304 -0.2940  0.5487 -0.1085
    1CHTO   C14  377   6.065   6.365  -0.441 -0.5958  0.0172 -0.4422
    1CHTO   H27  378   5.965   6.360  -0.490 -0.8521 -0.9928  0.1635
    1CHTO   C18  379   6.160   6.266  -0.517 -0.2420  0.1315  0.4360
    1CHTO   O13  380   6.105   6.138  -0.536 -0.1538  0.7548 -0.2519
    1CHTO    H7  381   6.022   6.141  -0.579 -1.0814  2.3044  1.5461
    1CHTO    O2  382   6.274   6.240  -0.225 -0.3778 -0.1974 -0.0981
    1CHTO    C1  383   6.285   6.126  -0.132  0.6193  0.0625 -0.1817
    1CHTO   H14  384   6.236   6.140  -0.033  1.7893  1.6150  0.1927
    1CHTO    C2  385   6.441   6.085  -0.110  0.1424  0.2899 -0.8243
    1CHTO   H15  386   6.468   6.068  -0.215 -1.1604 -3.9721 -0.5557
    1CHTO    O6  387   6.504   6.198  -0.055 -0.0631 -1.2020  0.0762
    1CHTO    H1  388   6.589   6.185  -0.019  1.2566  2.5006 -1.4269
    1CHTO    C3  389   6.455   5.952  -0.018  0.4558 -0.9025 -0.7213
    1CHTO   H16  390   6.412   5.987   0.077  1.3946 -2.0295  0.1377
    1CHTO    N1  391   6.595   5.909   0.011 -0.0998  0.0141 -0.1200
    1CHTO    H8  392   6.645   5.882  -0.081 -0.0925 -1.4464  0.3081
    1CHTO    H9  393   6.639   5.999   0.053  0.1192  0.2855 -0.9265
    1CHTO    C4  394   6.364   5.837  -0.072 -0.1033  0.4348 -0.2777
    1CHTO   H17  395   6.415   5.786  -0.155 -0.3410 -0.7610  0.2996
    1CHTO    O1  396   6.229   5.885  -0.098  0.1187  0.1855  0.6944
    1CHTO    C5  397   6.220   5.999  -0.187  0.3360 -0.1602 -0.1741
    1CHTO   H18  398   6.272   5.971  -0.278  1.9806  0.1744  0.6441
    1CHTO   C16  399   6.066   6.001  -0.219 -0.0359 -0.3939 -0.3103
    1CHTO   O11  400   6.031   5.925  -0.336  0.7059 -0.0857 -0.2627
    1CHTO    H5  401   5.969   5.860  -0.308 -2.6528  2.8460 -0.4773
    1CHTO    O3  402   6.354   5.730   0.024  0.0603 -0.7225  0.5488
    1CHTO    C6  403   6.306   5.599  -0.028  0.8639 -0.9899 -0.2971
    1CHTO   H19  404   6.264   5.616  -0.128  0.3366  3.1442  0.5416
    1CHTO    C8  405   6.416   5.491  -0.032 -0.2432 -0.2016  0.0624
    1CHTO   H21  406   6.459   5.473   0.067  0.9978  0.6812 -0.3038
    1CHTO    O7  407   6.531   5.547  -0.103 -0.2162 -0.1600 -0.3333
    1CHTO    H2  408   6.586   5.477  -0.136 -0.2196  0.0117 -0.7085
    1CHTO   C12  409   6.351   5.365  -0.097  0.6230 -0.4538 -0.5554
    1CHTO   H25  410   6.330   5.393  -0.203 -2.6375 -0.0143  0.1616
    1CHTO    N3  411   6.449   5.248  -0.091  0.0715  0.3881  0.2055
    1CHTO   H12  412   6.398   5.154  -0.106 -1.1551  0.7207  2.0806
    1CHTO   H13  413   6.519   5.258  -0.173 -0.2293 -0.5875 -0.1876
    1CHTO   C15  414   6.214   5.328  -0.024  0.0049 -0.1298 -0.1345
    1CHTO   H28  415   6.230   5.293   0.078 -0.2107  0.2485  0.0286
    1CHTO   O10  416   6.132   5.231  -0.086  0.0562  0.3559  0.0504
    1CHTO    H4  417   6.168   5.144  -0.083 -3.1108 -1.1345 -2.0485
    1CHTO    O5  418   6.123   5.437  -0.014 -0.1392 -0.2091 -0.1821
    1CHTO   C10  419   6.185   5.543   0.058 -0.3527 -0.7111  0.7973
    1CHTO   H23  420   6.224   5.508   0.154  1.8563 -1.0600 -0.1979
    1CHTO   C17  421   6.079   5.645   0.086 -0.0605 -0.2580 -0.3848
    1CHTO   O12  422   5.984   5.625   0.198 -0.2474  0.1250 -0.4025
    1CHTO    H6  423   5.896   5.641   0.170 -0.0316 -0.9185 -1.7491
    2CHTO  H203  424   3.762   3.936   1.632  2.1340 -0.0585  0.0521
    2CHTO   O82  425   3.789   3.977   1.552  0.3439 -0.1219 -0.6120
    2CHTO  C123  426   3.799   4.121   1.561  0.0234 -0.7050  0.0526
    2CHTO  H227  427   3.848   4.151   1.656 -1.2874  3.2854 -0.4535
    2CHTO   O77  428   3.892   4.153   1.443 -0.3821 -0.1119  0.2486
    2CHTO  C118  429   3.897   4.293   1.422 -0.9992  0.1952  0.3419
    2CHTO  H222  430   3.931   4.334   1.518  2.7399  1.7315 -1.5539
    2CHTO  C125  431   3.999   4.315   1.305 -0.0402 -0.2864  0.5000
    2CHTO   O84  432   4.137   4.299   1.339 -0.0795 -0.3547 -0.0226
    2CHTO  H205  433   4.175   4.217   1.316 -0.8305  0.3585 -4.1570
    2CHTO  C114  434   3.757   4.353   1.396 -0.1116 -0.5726  0.1912
    2CHTO  H218  435   3.709   4.288   1.323  0.3155 -2.0097  1.1844
    2CHTO  C116  436   3.660   4.336   1.522  0.1812  0.0575 -0.9286
    2CHTO  H220  437   3.681   4.399   1.610 -3.9637 -0.4009  0.5095
    2CHTO   O79  438   3.535   4.382   1.479  0.3639 -0.1344  0.8544
    2CHTO  H201  439   3.537   4.469   1.443  0.8436 -0.5462 -0.1162
    2CHTO  C120  440   3.652   4.182   1.558 -0.2026  0.0356  0.1153
    2CHTO  H224  441   3.597   4.133   1.474  1.2981 -0.7718 -0.4012
    2CHTO   N21  442   3.564   4.162   1.676 -0.3135  0.0863  0.6220
    2CHTO  H211  443   3.467   4.127   1.642  0.0614 -0.6880  0.3279
    2CHTO  H212  444   3.607   4.085   1.738 -0.4155 -2.4442 -2.3047
    2CHTO   O75  445   3.772   4.486   1.342 -0.1903 -0.0692 -0.3448
    2CHTO  C112  446   3.660   4.541   1.246 -0.4077 -0.0107 -0.7602
    2CHTO  H216  447   3.559   4.529   1.288  0.3986  2.1553  1.9520
    2CHTO   O73  448   3.680   4.480   1.119 -0.0614 -0.2479 -0.3792
    2CHTO  C113  449   3.572   4.492   1.025  0.2051  0.0020  0.5132
    2CHTO  H217  450   3.475   4.462   1.071 -0.8261  2.5336  0.0998
    2CHTO  C124  451   3.604   4.410   0.906 -0.4225 -0.0957 -0.2571
    2CHTO   O83  452   3.590   4.270   0.945 -0.1137  0.8243 -0.1704
    2CHTO  H204  453   3.646   4.221   0.889  0.0727  1.8345 -0.8717
    2CHTO  C109  454   3.562   4.644   0.990 -0.5393 -0.3068 -0.5917
    2CHTO  H213  455   3.652   4.669   0.933  0.4186 -3.5478 -0.6153
    2CHTO  C110  456   3.552   4.730   1.121  0.1935 -0.1551  0.1090
    2CHTO  H214  457   3.459   4.701   1.170  0.4379 -0.3840  0.4382
    2CHTO   O78  458   3.555   4.858   1.073  0.1351  0.3219 -0.3305
    2CHTO  H200  459   3.496   4.921   1.110 -1.9533 -0.9799 -1.3672
    2CHTO  C111  460   3.673   4.694   1.215  0.1795  0.0712  0.4538
    2CHTO  H215  461   3.764   4.708   1.155 -0.7213 -1.3020 -1.2960
    2CHTO   N19  462   3.685   4.782   1.336  0.4457 -0.2130  0.4221
    2CHTO  H207  463   3.585   4.813   1.361 -0.6000 -2.8235 -0.2974
    2CHTO  H208  464   3.752   4.748   1.413 -1.5149 -2.0604  1.3668
    2CHTO   O74  465   3.440   4.664   0.913 -0.3048  0.1230  0.0908
    2CHTO  C115  466   3.468   4.767   0.784  0.2664 -0.5808 -0.0769
    2CHTO  H219  467   3.557   4.827   0.803  0.7785 -1.1987 -0.5198
    2CHTO   O76  468   3.497   4.688   0.660  0.0110 -0.0592 -0.0825
    2CHTO  C122  469   3.390   4.600   0.627  0.2627 -0.7635 -0.7809
    2CHTO  H226  470   3.382   4.539   0.717  0.3672 -0.0105 -0.2552
    2CHTO  C126  471   3.431   4.500   0.508  0.7532 -0.0665  0.3760
    2CHTO   O85  472   3.539   4.417   0.552  0.5880 -0.3795  0.0517
    2CHTO  H206  473   3.509   4.369   0.627  1.0814 -2.8213 -1.2492
    2CHTO  C121  474   3.264   4.687   0.592 -0.1302 -0.1887  0.0063
    2CHTO  H225  475   3.229   4.663   0.490 -1.9157 -1.8182  0.9661
    2CHTO   O81  476   3.147   4.642   0.669  0.0324 -0.0958  0.1330
    2CHTO  H202  477   3.078   4.646   0.605  1.2060 -1.2767 -1.2560
    2CHTO  C119  478   3.286   4.834   0.618  0.2119 -0.4020 -0.4393
    2CHTO  H223  479   3.353   4.867   0.538 -0.0470 -0.4927 -0.6938
    2CHTO  C117  480   3.339   4.849   0.765 -0.1748  0.4810  0.0523
    2CHTO  H221  481   3.266   4.821   0.842  0.2287  0.1353  0.3111
    2CHTO   N20  482   3.375   4.992   0.794  0.1106 -0.3503 -0.5314
    2CHTO  H209  483   3.454   5.026   0.728 -1.0039  0.8290 -1.2710
    2CHTO  H210  484   3.287   5.055   0.793 -0.2888 -0.9124 -0.7875
    2CHTO   O80  485   3.161   4.920   0.594  0.6391  0.4837 -0.4105
    2CHTO  C103  486   3.166   5.030   0.485  0.1387  0.0577 -0.2280
    2CHTO  H190  487   3.241   5.106   0.505  0.7628 -0.1161 -1.8794
    2CHTO  C101  488   3.191   4.995   0.334 -0.1349 -0.1591  0.3821
    2CHTO  H188  489   3.125   4.919   0.292  1.5071 -1.1217 -0.4985
    2CHTO   O68  490   3.336   4.929   0.310  0.1715  0.3028 -0.3666
    2CHTO  H168  491   3.394   4.992   0.271  0.0337 -0.1898 -1.3952
    2CHTO   C99  492   3.181   5.123   0.236  0.0289 -0.2551 -1.2743
    2CHTO  H186  493   3.266   5.190   0.260  0.2857 -1.7343  2.1527
    2CHTO   N17  494   3.186   5.106   0.084 -0.7348  0.1612 -0.0534
    2CHTO  H174  495   3.220   5.188   0.022 -0.7105  1.1439  1.2357
    2CHTO  H175  496   3.249   5.021   0.062 -1.5818 -0.6861  0.7444
    2CHTO   C97  497   3.048   5.200   0.275  0.9050  0.0658  0.0600
    2CHTO  H184  498   2.966   5.137   0.237  0.4986 -0.5729  1.9378
    2CHTO   O64  499   3.031   5.227   0.412  0.3366  0.3826 -0.3457
    2CHTO  C104  500   3.029   5.109   0.495 -0.0188  0.0065 -0.7618
    2CHTO  H191  501   2.946   5.046   0.462 -2.1870  1.6304  1.3974
    2CHTO  C108  502   2.982   5.158   0.636  0.0430 -0.4396 -0.0374
    2CHTO   O71  503   2.854   5.226   0.638 -0.2293  0.1120  0.5429
    2CHTO  H171  504   2.798   5.170   0.689  0.1606  1.2017  2.2272
    2CHTO   O62  505   3.048   5.335   0.228  0.0294 -0.4164 -0.2606
    2CHTO   C91  506   2.964   5.366   0.119 -0.1246 -0.0058 -0.7952
    2CHTO  H178  507   2.948   5.286   0.047 -2.1882 -0.0150 -0.3574
    2CHTO   C92  508   3.038   5.482   0.042 -0.7132 -0.1492  0.0655
    2CHTO  H179  509   3.084   5.545   0.119  1.4968  0.0705 -1.3959
    2CHTO   O66  510   3.157   5.425  -0.030  0.2488 -0.1410  0.2174
    2CHTO  H166  511   3.231   5.429   0.027  1.1801 -1.6498 -0.8425
    2CHTO   C93  512   2.949   5.571  -0.063 -0.6078  0.0458  1.1937
    2CHTO  H180  513   2.932   5.505  -0.149  0.8588  0.9383  0.2071
    2CHTO   N16  514   3.024   5.690  -0.109  0.8387 -0.3272  0.0087
    2CHTO  H172  515   3.131   5.679  -0.110  0.7883 -0.8848  0.4056
    2CHTO  H173  516   2.982   5.716  -0.205  1.7095  2.6268  0.3699
    2CHTO   C94  517   2.814   5.606   0.006  0.6646 -0.5811  0.9453
    2CHTO  H181  518   2.822   5.684   0.081 -2.1891  0.4414  0.2684
    2CHTO   O61  519   2.753   5.486   0.055  0.2715  0.3665 -0.0900
    2CHTO   C95  520   2.823   5.423   0.163 -1.1144 -0.8259  1.2570
    2CHTO  H182  521   2.839   5.498   0.240 -2.2540  0.3994  0.3092
    2CHTO  C106  522   2.716   5.320   0.224 -1.0895 -0.4811  0.3419
    2CHTO   O69  523   2.594   5.389   0.259  0.6737  0.4009 -0.1299
    2CHTO  H169  524   2.614   5.463   0.315  0.1543  0.1449  0.3987
    2CHTO   O63  525   2.708   5.663  -0.091  0.0021  0.5201 -1.1111
    2CHTO   C96  526   2.646   5.803  -0.037 -0.1667  0.1908  0.2023
    2CHTO  H183  527   2.554   5.811  -0.093 -0.3347  0.1688  0.4742
    2CHTO   C98  528   2.734   5.931  -0.068  0.1914  0.5041 -0.9210
    2CHTO  H185  529   2.831   5.918  -0.018 -0.6414 -1.1273  0.3103
    2CHTO   O67  530   2.763   5.930  -0.204  0.6998  0.4356 -0.0819
    2CHTO  H167  531   2.843   5.891  -0.234  0.3626  0.5950 -1.2316
    2CHTO  C102  532   2.662   6.065  -0.023 -0.5175  0.2204  0.3788
    2CHTO  H189  533   2.568   6.072  -0.080 -1.6198 -2.2798  1.8316
    2CHTO   N18  534   2.739   6.182  -0.064  0.2526  0.0100 -0.2369
    2CHTO  H176  535   2.830   6.157  -0.116  0.6645  0.5425  0.2183
    2CHTO  H177  536   2.676   6.253  -0.116 -0.8885 -0.2852  0.7132
    2CHTO  C105  537   2.630   6.046   0.124 -0.2893  0.5361  0.1289
    2CHTO  H192  538   2.727   6.034   0.173  0.0127 -0.5484 -0.7147
    2CHTO   O65  539   2.547   5.935   0.144 -0.0893  0.2933 -0.1278
    2CHTO  C100  540   2.596   5.804   0.111  0.6129  0.2396 -0.4337
    2CHTO  H187  541   2.682   5.787   0.177  1.2302  1.9186 -0.7645
    2CHTO  C107  542   2.480   5.706   0.132  0.1315  0.0522  0.3481
    2CHTO   O70  543   2.430   5.693   0.270 -0.0380  0.2094 -0.7198
    2CHTO  H170  544   2.337   5.692   0.280 -0.1014  0.4188 -1.2681
    2CHTO   O57  545   2.545   6.204   0.169 -0.7208  0.3314  0.6741
    2CHTO   C85  546   2.570   6.268   0.299 -0.1449  0.7604  0.4709
    2CHTO  H157  547   2.489   6.344   0.303 -0.9487  0.0773 -2.0069
    2CHTO   C83  548   2.704   6.358   0.294  0.3647  0.1087 -0.6278
    2CHTO  H155  549   2.689   6.442   0.226  0.4807 -0.2093 -1.0431
    2CHTO   O56  550   2.804   6.272   0.237 -0.0444 -0.2808  0.7313
    2CHTO  H135  551   2.862   6.228   0.296  1.7960  2.3654  0.9547
    2CHTO   C81  552   2.748   6.412   0.431 -0.3262 -0.1527 -0.1704
    2CHTO  H153  553   2.669   6.482   0.461 -0.7684 -0.9544  0.5675
    2CHTO   N14  554   2.864   6.503   0.430 -0.4727  0.1073  0.1947
    2CHTO  H141  555   2.854   6.577   0.353  0.4806 -1.1231 -1.1598
    2CHTO  H142  556   2.959   6.454   0.424 -1.3590 -1.5759 -0.4754
    2CHTO   C79  557   2.755   6.294   0.543  0.2349  0.2341 -0.3453
    2CHTO  H151  558   2.778   6.345   0.637  0.4463  0.3474 -0.4578
    2CHTO   O52  559   2.624   6.229   0.552 -0.0976  0.4161  0.0769
    2CHTO   C86  560   2.568   6.169   0.428 -0.2272  0.0888  0.1628
    2CHTO  H158  561   2.636   6.084   0.405 -0.2493 -0.0724  0.6937
    2CHTO   C90  562   2.431   6.108   0.441 -0.1324  0.3255 -0.1579
    2CHTO   O60  563   2.343   6.199   0.511  0.1112  0.0997 -0.2675
    2CHTO  H138  564   2.373   6.244   0.588  1.2989 -0.4216 -0.4137
    2CHTO   O50  565   2.864   6.211   0.512  0.3346 -0.0937 -0.0513
    2CHTO   C73  566   3.004   6.211   0.522 -0.7143 -0.2679  0.2504
    2CHTO  H145  567   3.042   6.300   0.573  0.7105 -0.4061 -0.5314
    2CHTO   C74  568   3.072   6.214   0.382 -0.4148 -0.5999  0.6738
    2CHTO  H146  569   3.031   6.297   0.322  0.4659  0.6168  1.7176
    2CHTO   O54  570   3.205   6.245   0.423 -0.0080 -0.0120  0.0426
    2CHTO  H133  571   3.217   6.338   0.432  1.8544 -0.2356  0.0665
    2CHTO   C75  572   3.049   6.073   0.310 -0.0191 -0.2926 -0.5663
    2CHTO  H147  573   2.941   6.056   0.315  0.0537 -0.5404  0.1449
    2CHTO   N13  574   3.092   6.074   0.174  0.4055 -0.0738  0.2238
    2CHTO  H139  575   3.064   5.977   0.135 -0.2479 -0.1844  0.9696
    2CHTO  H140  576   3.194   6.100   0.152 -0.0363  1.4989  0.0018
    2CHTO   C76  577   3.125   5.961   0.402 -0.3511  0.5579  0.2160
    2CHTO  H148  578   3.231   5.976   0.418  0.0910 -1.9969 -0.0975
    2CHTO   O49  579   3.053   5.965   0.535  0.1584 -0.0760  0.0959
    2CHTO   C77  580   3.056   6.088   0.604  0.2650 -0.2666  0.6127
    2CHTO  H149  581   3.159   6.110   0.634 -0.5138  2.8390  1.2137
    2CHTO   C88  582   2.981   6.078   0.742  0.6817  0.8458  0.3957
    2CHTO   O58  583   3.017   6.204   0.821  0.3854 -0.3423  0.1061
    2CHTO  H136  584   2.959   6.275   0.800  1.5409  0.3995 -0.6331
    2CHTO   O51  585   3.112   5.827   0.347 -0.0168  0.4503  0.1518
    2CHTO   C78  586   3.196   5.713   0.410 -0.2038  0.3167 -0.1939
    2CHTO  H150  587   3.253   5.747   0.499 -1.0003 -1.8336  1.1625
    2CHTO   C80  588   3.307   5.653   0.322 -0.4367  0.4122  0.1014
    2CHTO  H152  589   3.257   5.592   0.244 -0.6499 -1.2420  1.5049
    2CHTO   O55  590   3.388   5.762   0.267  0.1810 -0.0397 -0.2049
    2CHTO  H134  591   3.329   5.807   0.210 -0.6450 -1.2656 -0.3470
    2CHTO   C84  592   3.396   5.558   0.411 -0.1614 -0.2435  0.3579
    2CHTO  H156  593   3.449   5.618   0.486  0.3468  0.2307 -0.3825
    2CHTO   N15  594   3.518   5.511   0.331  0.9219  0.1473  0.1178
    2CHTO  H143  595   3.565   5.442   0.399  1.0355  0.8935  0.8111
    2CHTO  H144  596   3.584   5.595   0.320  1.2631 -0.0135  0.8632
    2CHTO   C87  597   3.312   5.445   0.480 -0.5025  0.3267  0.6205
    2CHTO  H159  598   3.315   5.362   0.409 -1.6380  1.1743 -0.4296
    2CHTO   O53  599   3.163   5.493   0.511 -0.0602  0.0028 -0.0491
    2CHTO   C82  600   3.099   5.597   0.437  0.1238 -0.8318 -0.5237
    2CHTO  H154  601   3.065   5.557   0.342  0.6548 -2.4590 -0.0522
    2CHTO   C89  602   2.970   5.629   0.515 -0.0172 -0.1048 -0.7686
    2CHTO   O59  603   2.870   5.525   0.511  0.7475  0.3258 -0.0222
    2CHTO  H137  604   2.799   5.530   0.571  0.1587  0.0067 -0.6797
    2CHTO   O45  605   3.380   5.381   0.624  0.1705  0.3391  0.5661
    2CHTO   C67  606   3.355   5.471   0.730  0.1877 -0.3688  0.3753
    2CHTO  H124  607   3.318   5.572   0.711 -0.2563 -0.0509  2.7222
    2CHTO   C65  608   3.248   5.401   0.822  0.7637  0.2711 -0.5017
    2CHTO  H122  609   3.237   5.299   0.785 -0.5630  0.2296 -0.0079
    2CHTO   O44  610   3.123   5.476   0.798 -0.4239 -0.1458 -0.3347
    2CHTO  H102  611   3.065   5.421   0.749 -0.0688 -0.3283 -0.5441
    2CHTO   C63  612   3.283   5.392   0.977  0.6727 -0.5473 -0.3201
    2CHTO  H120  613   3.368   5.324   0.984  0.3581 -0.8635  0.4448
    2CHTO   N11  614   3.186   5.327   1.070 -0.5509 -0.3024  0.3889
    2CHTO  H108  615   3.237   5.302   1.161  0.7310  1.0317  0.0365
    2CHTO  H109  616   3.128   5.247   1.028 -0.8600  0.7116 -1.1544
    2CHTO   C61  617   3.343   5.534   1.020  0.5739  0.9208  0.4023
    2CHTO  H118  618   3.371   5.529   1.126 -0.3074 -0.8046  0.5762
    2CHTO   O40  619   3.467   5.566   0.945  0.0614  0.2502  0.1396
    2CHTO   C68  620   3.486   5.503   0.814  0.4979  0.1610  0.0926
    2CHTO  H125  621   3.540   5.409   0.839 -2.3749 -2.2275 -2.4439
    2CHTO   C72  622   3.586   5.590   0.741 -0.2458  0.7017  0.9355
    2CHTO   O48  623   3.710   5.617   0.800  0.4008  0.6020 -0.3130
    2CHTO  H105  624   3.708   5.710   0.818 -5.2203  0.6570 -0.4083
    2CHTO   O38  625   3.248   5.640   0.999  0.3844  0.1638  0.3053
    2CHTO   C55  626   3.210   5.729   1.104 -0.3297  0.1524  0.2947
    2CHTO  H112  627   3.275   5.705   1.190 -0.3004  0.2526  0.3004
    2CHTO   C56  628   3.061   5.722   1.139  1.2863 -0.0264  0.7168
    2CHTO  H113  629   3.002   5.717   1.046 -1.5558 -3.2381  2.5731
    2CHTO   O42  630   3.031   5.594   1.191 -0.1150 -0.4269 -0.4013
    2CHTO  H100  631   3.073   5.527   1.141  1.6564 -0.1315  0.6454
    2CHTO   C57  632   3.002   5.841   1.234  0.6675 -0.8433  0.3347
    2CHTO  H114  633   3.040   5.843   1.337  0.8234  2.0383  0.2546
    2CHTO   N10  634   2.853   5.833   1.251 -0.1367 -0.3548  0.0687
    2CHTO  H106  635   2.823   5.870   1.348  1.2116 -0.1475  0.4174
    2CHTO  H107  636   2.830   5.728   1.241  2.1171 -0.8670  0.0435
    2CHTO   C58  637   3.034   5.973   1.161  0.0100  0.0033  0.5342
    2CHTO  H115  638   2.982   5.976   1.063 -3.1409  2.3405  2.1813
    2CHTO   O37  639   3.179   5.982   1.138 -0.4339  0.1966  0.8764
    2CHTO   C59  640   3.244   5.873   1.064  0.3705  0.0412  0.0249
    2CHTO  H116  641   3.222   5.881   0.957 -1.2056 -1.5622  0.2069
    2CHTO   C70  642   3.394   5.895   1.088 -0.6741 -0.4128  0.1507
    2CHTO   O46  643   3.426   6.032   1.053 -0.0231  0.6106 -0.8646
    2CHTO  H103  644   3.378   6.095   1.104 -0.0389 -0.1413  0.0535
    2CHTO   O39  645   2.989   6.092   1.242 -0.3149 -0.2311 -0.1314
    2CHTO   C60  646   2.943   6.206   1.160  0.0271  0.1811 -0.7246
    2CHTO  H117  647   3.011   6.222   1.077 -2.4006  2.2746 -2.3718
    2CHTO   C62  648   2.802   6.178   1.104 -0.5907  0.4063  0.6328
    2CHTO  H119  649   2.816   6.098   1.028  0.0697  0.6665  0.4755
    2CHTO   O43  650   2.704   6.128   1.198 -0.0156  0.0880  0.3458
    2CHTO  H101  651   2.621   6.111   1.159 -0.0707  0.2885  0.3771
    2CHTO   C66  652   2.752   6.308   1.022 -1.0528 -0.3769  0.1860
    2CHTO  H123  653   2.828   6.342   0.953 -0.3056 -1.9686  0.2229
    2CHTO   N12  654   2.627   6.272   0.951 -0.2697 -0.0022  0.3840
    2CHTO  H110  655   2.660   6.221   0.862 -2.0071 -0.4299 -0.0326
    2CHTO  H111  656   2.573   6.362   0.927 -1.9576 -1.0162  0.3245
    2CHTO   C69  657   2.746   6.429   1.121 -0.0564 -0.1292 -0.1055
    2CHTO  H126  658   2.683   6.403   1.208 -1.7004 -0.4093 -1.3537
    2CHTO   O41  659   2.885   6.460   1.159 -0.2088  0.5794 -0.2186
    2CHTO   C64  660   2.946   6.335   1.248 -0.4028 -0.0107 -0.5582
    2CHTO  H121  661   2.890   6.324   1.343  0.0656 -1.9836 -0.4867
    2CHTO   C71  662   3.092   6.369   1.290 -0.3396 -0.4601  0.5250
    2CHTO   O47  663   3.182   6.399   1.183  0.1348  0.1646 -0.5453
    2CHTO  H104  664   3.194   6.330   1.121 -0.0506 -1.1755  0.8870
    2CHTO   O34  665   2.695   6.550   1.041 -0.6662 -0.1851 -0.1633
    2CHTO   C49  666   2.668   6.699   1.067 -0.9037  0.1435  0.4406
    2CHTO   H91  667   2.596   6.712   1.147 -0.0710 -2.6659  1.7063
    2CHTO   C47  668   2.602   6.752   0.936 -0.5131 -0.1672 -0.6879
    2CHTO   H89  669   2.571   6.855   0.962 -0.2775 -0.5076  0.9507
    2CHTO   O33  670   2.486   6.677   0.902  0.9121  0.1498  0.1027
    2CHTO   H70  671   2.506   6.589   0.927 -2.2216 -0.8152 -0.5571
    2CHTO   C45  672   2.709   6.759   0.822  0.0547 -0.4589  0.5412
    2CHTO   H87  673   2.744   6.655   0.816 -1.9099 -1.3556  3.7374
    2CHTO    N8  674   2.639   6.801   0.692 -0.2435 -0.4827  0.4947
    2CHTO   H75  675   2.597   6.900   0.697  1.8815  0.5494 -1.1329
    2CHTO   H76  676   2.712   6.795   0.613 -1.7432 -2.0660 -0.8369
    2CHTO   C43  677   2.824   6.857   0.854 -0.8083  0.5419 -0.8258
    2CHTO   H85  678   2.893   6.845   0.771  1.9402  0.0258  1.4347
    2CHTO   O29  679   2.881   6.820   0.987 -0.1000 -0.3717 -0.3840
    2CHTO   C50  680   2.800   6.777   1.097 -0.4451  0.7596 -0.5643
    2CHTO   H92  681   2.865   6.704   1.147 -0.7780  1.4257  0.8594
    2CHTO   C54  682   2.770   6.892   1.194 -0.3271  0.1130  0.1968
    2CHTO   O36  683   2.883   6.965   1.237  0.5472  0.3255  0.5666
    2CHTO   H72  684   2.874   6.996   1.325  0.0941  0.0910  0.6091
    2CHTO   O27  685   2.789   7.000   0.863  0.0800  0.1362 -0.1616
    2CHTO   C37  686   2.789   7.136   0.852 -0.5191 -0.1481  0.3961
    2CHTO   H79  687   2.803   7.163   0.746 -0.7586 -1.6659 -0.0429
    2CHTO   C38  688   2.647   7.186   0.897 -0.6673  0.4487  0.4316
    2CHTO   H80  689   2.626   7.143   0.996  0.3145  1.8304  1.2445
    2CHTO   O31  690   2.561   7.118   0.804  0.1652 -0.4600 -0.7679
    2CHTO   H68  691   2.555   7.025   0.807 -1.0413 -0.3324  1.5675
    2CHTO   C39  692   2.639   7.336   0.903  0.3947  0.0422  0.6422
    2CHTO   H81  693   2.630   7.376   0.802 -0.3262 -0.6899  0.4010
    2CHTO    N7  694   2.505   7.370   0.972 -0.3805 -0.4766 -0.4511
    2CHTO   H73  695   2.495   7.477   0.983  1.9279 -0.2205 -0.5379
    2CHTO   H74  696   2.428   7.310   0.926 -0.6499  1.3565 -2.4621
    2CHTO   C40  697   2.767   7.390   0.981  0.2204  0.4213 -0.3228
    2CHTO   H82  698   2.755   7.347   1.080  2.2994 -0.7536 -0.5669
    2CHTO   O26  699   2.890   7.346   0.919 -0.3072 -0.3281  0.3941
    2CHTO   C41  700   2.904   7.200   0.932  0.2938  0.7458  0.0057
    2CHTO   H83  701   2.902   7.173   1.039 -1.3560  0.5843 -0.0555
    2CHTO   C52  702   3.039   7.158   0.882  0.5927  0.2241 -0.0067
    2CHTO   O35  703   3.096   7.021   0.917  0.1119 -0.0314  0.3841
    2CHTO   H71  704   3.056   7.000   0.999  1.0210 -0.4776  0.7170
    2CHTO   O28  705   2.762   7.537   0.976 -0.0028  0.4620 -0.1913
    2CHTO   C42  706   2.841   7.620   1.064  0.0411 -0.1226 -0.6999
    2CHTO   H84  707   2.803   7.719   1.040 -0.5130 -0.3481 -0.7526
    2CHTO   C44  708   2.998   7.617   1.040  0.1628 -0.3568  0.4137
    2CHTO   H86  709   3.030   7.512   1.043 -0.6214 -0.6531 -1.1773
    2CHTO   O32  710   3.015   7.670   0.906 -0.4557  0.3463  0.3042
    2CHTO   H69  711   3.086   7.626   0.863 -0.5716 -0.9870  1.4375
    2CHTO   C48  712   3.073   7.706   1.153  0.0550 -0.2658  0.9349
    2CHTO   H90  713   3.038   7.807   1.135  1.1271 -0.2746 -1.2812
    2CHTO    N9  714   3.222   7.689   1.132 -0.1480 -0.4448 -0.3363
    2CHTO   H77  715   3.253   7.591   1.165  0.0872 -0.8347 -1.7072
    2CHTO   H78  716   3.247   7.708   1.029  1.2457  2.4328  0.4985
    2CHTO   C51  717   3.029   7.661   1.298  0.8883  0.2153 -0.0801
    2CHTO   H93  718   3.051   7.554   1.306  0.8169  0.3435  2.3409
    2CHTO   O30  719   2.886   7.686   1.301 -0.2275 -0.5160  0.3337
    2CHTO   C46  720   2.804   7.599   1.221  0.5113 -0.0176 -0.0187
    2CHTO   H88  721   2.818   7.496   1.254  2.4483  0.4900  0.8141
    2CHTO   C53  722   2.646   7.628   1.241 -0.7981 -0.0941  0.1397
    2CHTO   O72  723   2.613   7.769   1.235  0.8752 -0.1560  0.4189
    2CHTO  H199  724   2.522   7.774   1.211 -0.1598 -1.5664  3.6013
    2CHTO   O22  725   3.088   7.737   1.408 -0.7320 -0.6685  0.2709
    2CHTO   C31  726   3.078   7.695   1.548  0.6744 -0.9251 -0.3790
    2CHTO   H59  727   3.126   7.779   1.604 -0.5059  0.2085 -1.0267
    2CHTO   C29  728   2.928   7.692   1.594  1.1641 -0.7625 -0.3157
    2CHTO   H57  729   2.873   7.615   1.539  0.9248  0.3359 -1.6269
    2CHTO   O21  730   2.872   7.819   1.554 -0.2683 -0.0454  0.0823
    2CHTO   H37  731   2.893   7.828   1.463 -1.2833 -0.1508 -0.1766
    2CHTO   C27  732   2.911   7.666   1.754 -0.1246 -0.2796 -0.1267
    2CHTO   H55  733   2.950   7.755   1.805 -2.5450  2.7418 -3.2870
    2CHTO    N5  734   2.773   7.647   1.799 -0.8741  0.0129  0.1334
    2CHTO   H43  735   2.754   7.721   1.876 -2.1315 -0.6661  0.4829
    2CHTO   H44  736   2.708   7.664   1.715  0.6791  1.4966 -0.7981
    2CHTO   C25  737   3.004   7.546   1.792 -0.0015 -0.7777  0.4364
    2CHTO   H53  738   2.975   7.447   1.755 -1.0865 -0.7145  1.1025
    2CHTO   O17  739   3.138   7.553   1.736  0.6333  0.0669  0.4360
    2CHTO   C32  740   3.142   7.560   1.595  0.5121  0.2613  0.7576
    2CHTO   H60  741   3.083   7.476   1.560 -0.3408  1.2995 -0.3489
    2CHTO   C36  742   3.282   7.537   1.547 -0.1785  0.3252  0.0134
    2CHTO   O25  743   3.318   7.396   1.570  0.1299 -0.2088  0.2536
    2CHTO   H40  744   3.289   7.338   1.502  0.5357  2.1238 -1.9593
    2CHTO   O15  745   3.020   7.546   1.959  0.1012 -0.7830  0.1221
    2CHTO   C19  746   3.063   7.447   2.054 -0.3222  0.1148  0.3897
    2CHTO   H47  747   2.995   7.366   2.026  1.4353 -1.0908 -0.4730
    2CHTO   C20  748   3.210   7.401   2.045  0.0265  0.3346 -0.5145
    2CHTO   H48  749   3.282   7.484   2.053  1.1129 -0.6302  0.0417
    2CHTO   O19  750   3.236   7.335   1.922  0.2141 -0.5091 -0.4728
    2CHTO   H35  751   3.326   7.310   1.912  1.0411  1.0416  2.4937
    2CHTO   C21  752   3.240   7.310   2.170  0.0815 -0.7922  0.8901
    2CHTO   H49  753   3.168   7.228   2.169 -0.1308 -0.6051 -0.5606
    2CHTO    N4  754   3.376   7.272   2.180  0.3710  0.0789  0.4447
    2CHTO   H41  755   3.429   7.313   2.265 -0.8168  0.5107  0.9797
    2CHTO   H42  756   3.423   7.306   2.088  1.5817 -1.8072  0.3314
    2CHTO   C22  757   3.184   7.390   2.295 -0.8898  0.0876 -0.2649
    2CHTO   H50  758   3.242   7.482   2.299  0.8958 -1.0658  0.9677
    2CHTO   O14  759   3.046   7.412   2.284 -0.2019  0.8427 -0.0077
    2CHTO   C23  760   3.018   7.503   2.183  0.8610  0.1497 -0.2418
    2CHTO   H51  761   3.068   7.598   2.204  0.7453  0.4416 -1.2925
    2CHTO   C34  762   2.865   7.524   2.191 -0.4185 -0.3938  0.1885
    2CHTO   O23  763   2.818   7.577   2.312  0.0788  0.2960 -0.2457
    2CHTO   H38  764   2.882   7.550   2.375  1.9627  2.2815 -1.2384
    2CHTO   O16  765   3.203   7.316   2.415  0.0647  0.2797 -0.2207
    2CHTO   C24  766   3.179   7.412   2.558 -0.3652  0.4788  0.6889
    2CHTO   H52  767   3.137   7.509   2.529  2.2951  1.6521  0.5615
    2CHTO   C26  768   3.308   7.432   2.634 -0.1762  0.3006  0.4477
    2CHTO   H54  769   3.341   7.330   2.662  0.0052  0.9251  2.5313
    2CHTO   O20  770   3.414   7.485   2.546 -0.0046  0.1525 -0.0605
    2CHTO   H36  771   3.487   7.426   2.555 -0.2373 -0.2125 -0.6025
    2CHTO   C30  772   3.287   7.520   2.764 -0.1057 -0.3681  0.0634
    2CHTO   H58  773   3.246   7.617   2.732  0.6071  0.6732  2.1883
    2CHTO    N6  774   3.410   7.552   2.843 -0.7405  0.2566  0.0250
    2CHTO   H45  775   3.500   7.539   2.785  1.5467  0.8488  3.3541
    2CHTO   H46  776   3.408   7.656   2.874 -0.0527 -0.4279  2.4535
    2CHTO   C33  777   3.172   7.457   2.845 -0.5226 -0.2868  0.9679
    2CHTO   H61  778   3.212   7.367   2.894 -0.3861  1.3259  3.9570
    2CHTO   O18  779   3.057   7.422   2.767 -0.8238 -0.2469 -0.8198
    2CHTO   C28  780   3.079   7.343   2.649  0.4012 -0.8221 -1.4505
    2CHTO   H56  781   3.125   7.252   2.689  3.7894  1.2723 -0.3231
    2CHTO   C35  782   2.945   7.314   2.579  0.9068  0.5760  0.5160
    2CHTO   O24  783   2.889   7.439   2.537  0.2706  0.3377 -0.3285
    2CHTO   H39  784   2.840   7.479   2.606  1.3691 -1.3029  1.4336
    2CHTO    O9  785   3.135   7.539   2.958  0.0144 -0.1934 -0.7061
    2CHTO   C13  786   2.998   7.507   3.036 -0.2690  0.3756 -0.0109
    2CHTO   H26  787   2.970   7.405   3.002  1.5065 -0.0067 -0.3543
    2CHTO   C11  788   2.886   7.619   3.001  0.7902 -0.2347  0.5279
    2CHTO   H24  789   2.858   7.610   2.895  0.5171 -1.5751  0.7007
    2CHTO    O8  790   2.941   7.746   3.036 -0.2749 -0.3943 -0.0744
    2CHTO    H3  791   3.017   7.770   2.986 -0.7376  1.5511  0.1177
    2CHTO    C9  792   2.757   7.575   3.086 -0.9654  0.5817 -0.1891
    2CHTO   H22  793   2.730   7.472   3.059 -0.2646  0.6653 -1.2387
    2CHTO    N2  794   2.641   7.662   3.057  0.1811  0.7015  0.2637
    2CHTO   H10  795   2.568   7.607   2.999  0.4860  0.6412 -0.0682
    2CHTO   H11  796   2.653   7.760   3.014  1.8990  0.4613  0.1397
    2CHTO    C7  797   2.791   7.572   3.240 -0.4834  0.5078 -0.0106
    2CHTO   H20  798   2.698   7.528   3.282 -0.7301 -0.1396 -1.2014
    2CHTO    O4  799   2.907   7.486   3.275 -0.5316 -0.0397  0.3340
    2CHTO   C14  800   3.027   7.503   3.194  0.6563  0.6906  0.1268
    2CHTO   H27  801   3.085   7.411   3.216  2.2920  2.1092  1.8821
    2CHTO   C18  802   3.103   7.622   3.263 -0.1648  0.0499 -0.3753
    2CHTO   O13  803   3.148   7.567   3.389 -0.2731  0.2811 -0.1264
    2CHTO    H7  804   3.074   7.559   3.447  0.5219 -0.9071  0.7495
    2CHTO    O2  805   2.803   7.736   3.301 -0.4820  0.0895 -0.2246
    2CHTO    C1  806   2.755   7.767   3.426 -0.3802  0.2789  0.1197
    2CHTO   H14  807   2.795   7.693   3.499 -2.1922  0.0843  0.9479
    2CHTO    C2  808   2.598   7.763   3.443  0.2516 -0.0575  0.0913
    2CHTO   H15  809   2.560   7.832   3.365 -0.1178  0.4457  0.7115
    2CHTO    O6  810   2.554   7.632   3.428  0.0704 -0.7067  0.2403
    2CHTO    H1  811   2.583   7.582   3.354 -1.5198  0.4736 -1.2036
    2CHTO    C3  812   2.552   7.831   3.583 -0.0564  0.0774 -0.3125
    2CHTO   H16  813   2.562   7.758   3.665 -3.1454 -3.0517 -2.5851
    2CHTO    N1  814   2.401   7.867   3.572 -0.4551 -0.3124  0.1476
    2CHTO    H8  815   2.388   7.971   3.544  2.2399  0.5577  1.8852
    2CHTO    H9  816   2.340   7.836   3.655 -0.8438 -1.0347 -0.4065
    2CHTO    C4  817   2.638   7.958   3.622  0.1637  0.4690  0.0936
    2CHTO   H17  818   2.611   8.040   3.556  1.4585  0.3012 -0.6735
    2CHTO    O1  819   2.781   7.935   3.606  0.0994 -0.5538  0.3381
    2CHTO    C5  820   2.809   7.912   3.464  0.0960 -0.3467 -0.3610
    2CHTO   H18  821   2.749   7.981   3.404 -3.0223 -1.7175  1.0525
    2CHTO   C16  822   2.958   7.939   3.435  0.4896  0.0450 -0.2844
    2CHTO   O11  823   2.984   7.984   3.297 -0.1195 -0.1529  0.3155
    2CHTO    H5  824   2.971   8.076   3.286  2.8374  0.5545  2.3039
    2CHTO    O3  825   2.620   7.994   3.756 -0.2643  0.1468 -0.8198
    2CHTO    C6  826   2.671   8.130   3.809 -0.0806  0.4813  0.5683
    2CHTO   H19  827   2.739   8.177   3.738  1.3756  0.5302  1.9809
    2CHTO    C8  828   2.546   8.227   3.829  0.0632  1.2389  0.1974
    2CHTO   H21  829   2.462   8.172   3.871 -1.1255  1.3776 -1.8759
    2CHTO    O7  830   2.497   8.265   3.697  0.0310 -0.3296  0.5393
    2CHTO    H2  831   2.420   8.215   3.678  1.2879 -1.4978 -1.7707
    2CHTO   C12  832   2.581   8.359   3.912  0.5524 -0.5019 -0.1499
    2CHTO   H25  833   2.651   8.418   3.850 -0.1257  0.8346  0.3254
    2CHTO    N3  834   2.459   8.440   3.942  0.3269 -0.1708 -0.0848
    2CHTO   H12  835   2.411   8.459   3.848 -1.6076  0.2761  0.9734
    2CHTO   H13  836   2.466   8.524   4.011 -1.2437 -0.2274  0.1441
    2CHTO   C15  837   2.655   8.307   4.039  0.4199 -0.4712 -0.8957
    2CHTO   H28  838   2.592   8.238   4.094 -1.8973  2.1105 -0.2037
    2CHTO   O10  839   2.694   8.402   4.131 -0.0019  0.0542  0.6369
    2CHTO    H4  840   2.698   8.379   4.222 -1.4774 -2.4044  0.1320
    2CHTO    O5  841   2.776   8.247   4.001  0.1529 -0.6519 -0.8031
    2CHTO   C10  842   2.757   8.116   3.939  0.1500  0.1855 -0.2173
    2CHTO   H23  843   2.701   8.055   4.010  0.4907  1.0351  0.7969
    2CHTO   C17  844   2.887   8.037   3.913  0.8104  0.1646 -0.1542
    2CHTO   O12  845   2.951   8.003   4.037  0.7131  1.3348  0.4131
    2CHTO    H6  846   3.042   7.994   4.015  0.5576  2.1227 -0.5371
    3CHTO  H203  847   7.212   2.504   2.312  0.9525 -2.6916 -0.7122
    3CHTO   O82  848   7.139   2.456   2.346 -0.2576 -0.1523  0.4501
    3CHTO  C123  849   7.172   2.318   2.331 -0.4793  0.2130 -0.6475
    3CHTO  H227  850   7.281   2.308   2.341 -0.4995  2.4266  2.2882
    3CHTO   O77  851   7.103   2.265   2.448  0.6602  0.4383  0.0213
    3CHTO  C118  852   7.112   2.121   2.466  0.5123  0.0512 -0.5010
    3CHTO  H222  853   7.217   2.099   2.490  0.1409 -0.4407  0.7127
    3CHTO  C125  854   7.021   2.087   2.593  0.2511 -0.0709 -0.0263
    3CHTO   O84  855   7.022   1.946   2.619  0.7374  0.3493  0.2433
    3CHTO  H205  856   7.098   1.900   2.591 -1.6195 -1.8848 -2.8871
    3CHTO  C114  857   7.071   2.050   2.338 -0.1991  0.4592 -0.0180
    3CHTO  H218  858   6.962   2.045   2.327  0.0193 -2.2016 -1.2308
    3CHTO  C116  859   7.152   2.109   2.214  0.1717  0.3039 -0.3558
    3CHTO  H220  860   7.258   2.095   2.244  0.5360  0.5239 -1.5112
    3CHTO   O79  861   7.124   2.024   2.098  0.8128 -0.1551  0.0324
    3CHTO  H201  862   7.184   2.045   2.029 -0.9026 -0.4970 -1.5734
    3CHTO  C120  863   7.117   2.254   2.205  0.6086  0.7612 -0.4686
    3CHTO  H224  864   7.006   2.255   2.204  0.5726  0.0262  1.1135
    3CHTO   N21  865   7.159   2.327   2.086  0.1349  0.0831 -0.2267
    3CHTO  H211  866   7.253   2.302   2.039 -0.3102  0.0604 -1.1344
    3CHTO  H212  867   7.080   2.324   2.012  0.0529 -2.3983 -0.0873
    3CHTO   O75  868   7.107   1.918   2.370 -0.3615  0.6699  0.3612
    3CHTO  C112  869   7.013   1.791   2.288  0.9776  0.1796 -1.0352
    3CHTO  H216  870   6.970   1.841   2.199 -0.1737  0.0250 -0.5756
    3CHTO   O73  871   6.908   1.753   2.381  0.4888 -0.0306 -0.2927
    3CHTO  C113  872   6.817   1.654   2.323  0.4210 -0.2135 -0.1485
    3CHTO  H217  873   6.776   1.699   2.230 -2.8887  1.1383  1.8885
    3CHTO  C124  874   6.695   1.653   2.416  0.3110 -0.6096 -0.2333
    3CHTO   O83  875   6.654   1.782   2.454 -0.1421 -0.1681 -0.2023
    3CHTO  H204  876   6.617   1.823   2.378 -1.6614  1.8773  1.5664
    3CHTO  C109  877   6.881   1.521   2.287 -0.1977 -0.3002 -0.3423
    3CHTO  H213  878   6.916   1.473   2.380  0.4761  1.4229  0.3117
    3CHTO  C110  879   7.012   1.552   2.185  1.2670 -0.1943  0.8933
    3CHTO  H214  880   6.982   1.582   2.084 -1.0184 -0.6906  1.3911
    3CHTO   O78  881   7.074   1.423   2.173 -0.5869  0.0388 -0.0298
    3CHTO  H200  882   7.082   1.394   2.262 -1.7165 -2.7517 -0.7897
    3CHTO  C111  883   7.106   1.664   2.248 -0.4336  0.6004  0.4887
    3CHTO  H215  884   7.158   1.617   2.333 -1.7602 -1.5678  0.1365
    3CHTO   N19  885   7.212   1.709   2.156  0.7923  0.6897  0.6640
    3CHTO  H207  886   7.195   1.680   2.053  0.7463  1.8315  0.3434
    3CHTO  H208  887   7.230   1.815   2.164 -0.8388  0.9516  1.0832
    3CHTO   O74  888   6.801   1.430   2.216 -0.2079  0.0051  0.0911
    3CHTO  C115  889   6.742   1.280   2.283  0.8004  0.6028  0.1444
    3CHTO  H219  890   6.817   1.229   2.344  0.9006  2.4117  1.5596
    3CHTO   O76  891   6.605   1.296   2.370 -0.1014 -0.2811 -0.4527
    3CHTO  C122  892   6.489   1.338   2.298  0.0803 -1.0026 -0.3912
    3CHTO  H226  893   6.498   1.438   2.256 -2.9367 -0.0383  1.1749
    3CHTO  C126  894   6.372   1.344   2.397 -0.1669 -0.4060 -0.1081
    3CHTO   O85  895   6.368   1.463   2.472  0.3936  0.4171  0.0885
    3CHTO  H206  896   6.395   1.449   2.561  3.0990 -1.5633 -0.9954
    3CHTO  C121  897   6.454   1.248   2.182  0.4725  0.4679  0.2874
    3CHTO  H225  898   6.355   1.197   2.186 -0.9202  2.7378 -2.7887
    3CHTO   O81  899   6.454   1.320   2.055  0.3195 -0.0364  0.2145
    3CHTO  H202  900   6.389   1.281   2.000  1.3579 -1.5535  0.0076
    3CHTO  C119  901   6.557   1.134   2.164 -0.3351 -0.0546 -0.0749
    3CHTO  H223  902   6.546   1.070   2.251 -0.7663 -0.7804 -0.6610
    3CHTO  C117  903   6.706   1.191   2.156 -0.3791 -0.1088 -0.0177
    3CHTO  H221  904   6.731   1.248   2.066  4.3396 -3.5966 -1.1462
    3CHTO   N20  905   6.802   1.074   2.147  0.2496 -0.4055 -0.1894
    3CHTO  H209  906   6.849   1.047   2.240 -0.0974 -1.4104 -0.2992
    3CHTO  H210  907   6.885   1.108   2.087  0.4331 -0.6792 -0.0935
    3CHTO   O80  908   6.508   1.025   2.025  0.4514  0.2100 -0.1218
    3CHTO  C103  909   6.395   0.927   2.044  0.0781  0.2937 -0.6210
    3CHTO  H190  910   6.376   0.904   2.149  0.2609  1.5655 -0.3000
    3CHTO  C101  911   6.264   0.954   1.963 -0.0814 -0.1914  0.1108
    3CHTO  H188  912   6.273   0.961   1.855 -0.2519  0.5808  0.1439
    3CHTO   O68  913   6.213   1.084   2.018 -0.1069 -0.5538 -0.1015
    3CHTO  H168  914   6.123   1.086   1.993  0.1002  0.7811 -0.8047
    3CHTO   C99  915   6.161   0.827   1.991 -0.7430 -0.1021 -0.8691
    3CHTO  H186  916   6.145   0.827   2.101  4.6603  0.7189  0.0732
    3CHTO   N17  917   6.035   0.838   1.912  0.2742 -0.5038 -0.0722
    3CHTO  H174  918   5.970   0.908   1.962 -1.7370 -0.8651 -2.0802
    3CHTO  H175  919   5.982   0.745   1.923 -0.4268 -0.1035 -0.0378
    3CHTO   C97  920   6.225   0.685   1.965  0.8550  0.2650 -0.1791
    3CHTO  H184  921   6.223   0.662   1.857 -0.1027  1.6371 -0.4748
    3CHTO   O64  922   6.358   0.688   2.020  0.1464  0.1586  0.5139
    3CHTO  C104  923   6.446   0.792   1.976 -0.2382 -0.7644  0.2366
    3CHTO  H191  924   6.435   0.803   1.868 -0.3154 -0.3684  0.2808
    3CHTO  C108  925   6.590   0.748   2.006  0.2030  0.0405 -0.6548
    3CHTO   O71  926   6.613   0.746   2.150 -0.3499 -0.2714  0.1150
    3CHTO  H171  927   6.595   0.833   2.181 -0.5227  0.2149 -1.3004
    3CHTO   O62  928   6.145   0.581   2.036 -0.0281 -0.0423 -1.0370
    3CHTO   C91  929   6.172   0.443   2.010 -0.3273 -0.3747  0.5285
    3CHTO  H178  930   6.209   0.431   1.908  0.0953 -0.4363  0.6905
    3CHTO   C92  931   6.029   0.363   2.010 -0.0294  0.1978 -0.1340
    3CHTO  H179  932   5.971   0.389   2.100  1.5297 -0.2762  1.0368
    3CHTO   O66  933   5.960   0.429   1.900  0.1473  0.3549  0.8967
    3CHTO  H166  934   5.874   0.396   1.882  1.0118 -0.5207 -1.8916
    3CHTO   C93  935   6.038   0.212   1.989 -0.0229 -0.6132 -0.3422
    3CHTO  H180  936   6.069   0.182   1.888 -2.0839 -1.7413 -0.6657
    3CHTO   N16  937   5.906   0.144   2.002 -0.0578  0.3638  0.2042
    3CHTO  H172  938   5.906   0.057   1.938  0.0278 -0.0676  0.7862
    3CHTO  H173  939   5.852   0.127   2.093 -1.4304  0.1280 -0.6454
    3CHTO   C94  940   6.135   0.157   2.096 -0.3445  0.5039  0.1343
    3CHTO  H181  941   6.083   0.108   2.178  3.0532 -2.1412  0.8149
    3CHTO   O61  942   6.223   0.252   2.160 -0.3112  0.0765 -0.0855
    3CHTO   C95  943   6.273   0.375   2.105  0.1065  0.8211 -1.3925
    3CHTO  H182  944   6.292   0.443   2.189 -1.3557  0.7957 -1.0292
    3CHTO  C106  945   6.422   0.354   2.050  0.4834 -0.4558  0.6746
    3CHTO   O69  946   6.404   0.298   1.922  0.8621 -0.2868  0.1746
    3CHTO  H169  947   6.412   0.205   1.921  1.0378 -0.2686 -1.0704
    3CHTO   O63  948   6.239   0.041   2.018 -0.1485 -0.5170 -0.4843
    3CHTO   C96  949   6.226  -0.111   2.055  0.4444  0.7677 -0.0823
    3CHTO  H183  950   6.315  -0.152   2.009 -0.1701  0.1779 -0.7668
    3CHTO   C98  951   6.105  -0.188   1.984  0.2328 -0.0976  0.0914
    3CHTO  H185  952   6.006  -0.159   2.023  1.4070 -0.2162  3.2928
    3CHTO   O67  953   6.095  -0.151   1.841  0.2421 -0.2802  0.4013
    3CHTO  H167  954   6.072  -0.060   1.832 -1.3921 -0.6592  0.6839
    3CHTO  C102  955   6.130  -0.343   2.005  0.1480  1.2982  0.2786
    3CHTO  H189  956   6.230  -0.369   1.968 -0.6068  0.5193 -1.2425
    3CHTO   N18  957   6.042  -0.442   1.939  0.0796 -0.6306  0.0613
    3CHTO  H176  958   6.077  -0.487   1.847 -0.8779 -0.4052 -0.4219
    3CHTO  H177  959   5.947  -0.393   1.921 -0.1436 -1.3471 -0.7597
    3CHTO  C105  960   6.140  -0.373   2.159 -0.3390  0.0948  0.1591
    3CHTO  H192  961   6.045  -0.338   2.200 -0.9354 -2.4567  1.0880
    3CHTO   O65  962   6.242  -0.289   2.217 -0.0979  0.8175 -0.5873
    3CHTO  C100  963   6.226  -0.146   2.205 -0.3189  0.0754  0.3170
    3CHTO  H187  964   6.138  -0.105   2.255 -0.3206 -1.6187  1.7679
    3CHTO  C107  965   6.349  -0.092   2.275  0.5121 -0.1123  0.3802
    3CHTO   O70  966   6.360   0.049   2.266  0.2918  0.0768 -0.1134
    3CHTO  H170  967   6.450   0.063   2.286  0.5746 -0.9887 -0.6125
    3CHTO   O57  968   6.167  -0.537   2.181  0.0536 -0.4167 -0.2835
    3CHTO   C85  969   6.121  -0.607   2.296 -1.1221 -0.3821  0.4979
    3CHTO  H157  970   6.172  -0.705   2.279  0.5301  0.4904  0.3693
    3CHTO   C83  971   5.968  -0.640   2.279  0.0208 -0.2159  0.3977
    3CHTO  H155  972   5.967  -0.697   2.186 -0.1105  0.2287  0.1203
    3CHTO   O56  973   5.895  -0.516   2.260 -0.4397  0.3438  0.2802
    3CHTO  H135  974   5.802  -0.525   2.257 -0.3870 -0.0007 -0.3902
    3CHTO   C81  975   5.920  -0.727   2.402  0.1336 -0.0771 -0.4411
    3CHTO  H153  976   5.986  -0.814   2.404 -0.3365 -0.4993 -1.9958
    3CHTO   N14  977   5.784  -0.780   2.394  0.6028  0.1002  0.1494
    3CHTO  H141  978   5.766  -0.827   2.300 -1.3536  2.9696 -0.9973
    3CHTO  H142  979   5.753  -0.837   2.479  0.7121  0.3505  0.3572
    3CHTO   C79  980   5.941  -0.651   2.538 -0.9239 -0.1681  0.7466
    3CHTO  H151  981   5.924  -0.726   2.616 -1.5912 -1.1006 -0.2836
    3CHTO   O52  982   6.082  -0.617   2.551 -0.3326 -0.1028  0.0536
    3CHTO   C86  983   6.149  -0.547   2.439 -0.2890 -0.5717 -0.6558
    3CHTO  H158  984   6.109  -0.445   2.449  0.4465 -0.2510 -0.9189
    3CHTO   C90  985   6.300  -0.537   2.450  0.5071 -0.1784  0.1729
    3CHTO   O60  986   6.348  -0.442   2.552  0.0146 -0.1528  0.4384
    3CHTO  H138  987   6.329  -0.478   2.636 -0.7803  1.3254  0.9166
    3CHTO   O50  988   5.869  -0.528   2.556 -0.0376  0.1599  0.8878
    3CHTO   C73  989   5.804  -0.459   2.653  0.2054 -0.8662 -0.2199
    3CHTO  H145  990   5.849  -0.488   2.749 -3.4181 -0.8269  1.5760
    3CHTO   C74  991   5.656  -0.502   2.657  0.6870 -0.3697  0.6495
    3CHTO  H146  992   5.652  -0.612   2.664 -1.9116 -0.4788 -1.6379
    3CHTO   O54  993   5.596  -0.443   2.776 -0.2535 -0.2199  0.0536
    3CHTO  H133  994   5.641  -0.486   2.845 -0.1562 -0.6947 -0.3045
    3CHTO   C75  995   5.585  -0.454   2.529 -0.6769 -0.5241 -0.5807
    3CHTO  H147  996   5.637  -0.496   2.442 -0.0457  0.6345 -0.7697
    3CHTO   N13  997   5.449  -0.503   2.523  0.2225 -0.7455  0.4384
    3CHTO  H139  998   5.434  -0.602   2.481  1.0717  0.2956 -2.4764
    3CHTO  H140  999   5.397  -0.430   2.462 -0.0328 -1.1188  0.2021
    3CHTO   C76 1000   5.601  -0.287   2.531  0.1780  0.2141  0.0974
    3CHTO  H148 1001   5.563  -0.251   2.627 -1.8887 -1.5023 -0.0507
    3CHTO   O49 1002   5.744  -0.256   2.518 -0.4769  0.3825 -0.3340
    3CHTO   C77 1003   5.821  -0.301   2.632 -0.4487  0.2817 -0.0254
    3CHTO  H149 1004   5.786  -0.252   2.723 -1.8133 -0.5166 -0.1032
    3CHTO   C88 1005   5.960  -0.245   2.622 -0.0198 -0.4338 -0.6984
    3CHTO   O58 1006   6.074  -0.318   2.709 -0.2661  0.0437 -0.2692
    3CHTO  H136 1007   6.151  -0.266   2.709 -0.7083  0.7830  2.2299
    3CHTO   O51 1008   5.537  -0.238   2.399  0.1559 -0.1564  0.1134
    3CHTO   C78 1009   5.519  -0.079   2.395 -0.1947 -0.1070 -0.2147
    3CHTO  H150 1010   5.588  -0.030   2.466 -1.0845  0.6167  0.1656
    3CHTO   C80 1011   5.375  -0.035   2.430 -0.5685  0.5214  0.0674
    3CHTO  H152 1012   5.308  -0.096   2.365  1.4266  1.5125 -3.0537
    3CHTO   O55 1013   5.351  -0.067   2.566  0.4405  0.3408  0.2478
    3CHTO  H134 1014   5.262  -0.048   2.589  0.4416 -0.7506  1.1735
    3CHTO   C84 1015   5.356   0.119   2.405  0.0926  0.3325 -0.2971
    3CHTO  H156 1016   5.419   0.159   2.484 -0.0360  1.1945 -0.6294
    3CHTO   N15 1017   5.212   0.168   2.429 -0.3657 -1.1959 -0.5960
    3CHTO  H143 1018   5.190   0.266   2.392  1.4038 -0.3315  0.5859
    3CHTO  H144 1019   5.144   0.099   2.383 -0.1056  0.6382 -3.8747
    3CHTO   C87 1020   5.423   0.170   2.271  0.1588  0.1372  0.1563
    3CHTO  H159 1021   5.362   0.129   2.191  0.3985 -0.4497  0.2703
    3CHTO   O53 1022   5.554   0.111   2.253  0.0922 -0.2649  0.5544
    3CHTO   C82 1023   5.559  -0.030   2.254 -0.9088  0.2664  0.8587
    3CHTO  H154 1024   5.495  -0.080   2.182  0.8109 -2.0812  0.8973
    3CHTO   C89 1025   5.712  -0.083   2.228  0.0153  0.1027 -0.3124
    3CHTO   O59 1026   5.702  -0.207   2.154  0.0323 -0.2674 -0.2390
    3CHTO  H137 1027   5.645  -0.267   2.199 -2.3563  1.5743 -0.6617
    3CHTO   O45 1028   5.424   0.323   2.269 -0.0950 -0.0123  0.0581
    3CHTO   C67 1029   5.547   0.394   2.288 -0.3374  0.0452  0.3955
    3CHTO  H124 1030   5.614   0.323   2.337 -1.8412 -0.7683  1.2957
    3CHTO   C65 1031   5.606   0.452   2.156  0.0434  0.1614 -0.4926
    3CHTO  H122 1032   5.519   0.456   2.091 -2.2575 -4.3402  2.0815
    3CHTO   O44 1033   5.693   0.349   2.110 -0.4968  0.4239 -0.3970
    3CHTO  H102 1034   5.739   0.381   2.035  0.7329  1.5885  0.8353
    3CHTO   C63 1035   5.670   0.594   2.171 -0.4220 -1.0008 -0.5995
    3CHTO  H120 1036   5.594   0.671   2.189  0.4607 -0.3525  0.4134
    3CHTO   N11 1037   5.754   0.644   2.055  0.0396  0.1892  0.2149
    3CHTO  H108 1038   5.784   0.566   1.989 -1.9735 -0.9664  0.6261
    3CHTO  H109 1039   5.827   0.714   2.091  1.2726 -0.7148 -0.4824
    3CHTO   C61 1040   5.746   0.606   2.311 -0.6254  0.7261 -0.1028
    3CHTO  H118 1041   5.782   0.710   2.310  1.1303  0.1791  1.9232
    3CHTO   O40 1042   5.654   0.591   2.420  0.3069  0.1772 -0.5887
    3CHTO   C68 1043   5.532   0.508   2.394  0.5173  0.0107 -0.4077
    3CHTO  H125 1044   5.445   0.574   2.373 -0.2494 -0.7310  0.4208
    3CHTO   C72 1045   5.503   0.432   2.527 -0.4942 -0.0769  0.2519
    3CHTO   O48 1046   5.457   0.504   2.643  0.1578 -0.7418  0.0412
    3CHTO  H105 1047   5.523   0.551   2.690  1.0360 -3.5360  1.6674
    3CHTO   O38 1048   5.858   0.515   2.319  0.1727 -0.3508  1.1079
    3CHTO   C55 1049   5.949   0.531   2.423  0.2973 -0.0704 -0.7357
    3CHTO  H112 1050   5.905   0.582   2.510 -1.0339  1.2065 -2.1285
    3CHTO   C56 1051   6.076   0.616   2.365 -0.6160 -0.1778  0.3951
    3CHTO  H113 1052   6.092   0.581   2.262  0.2341  0.9428  0.1395
    3CHTO   O42 1053   6.031   0.746   2.339 -0.7089 -0.1818 -0.1868
    3CHTO  H100 1054   5.980   0.766   2.415  0.4932  4.4572 -0.4133
    3CHTO   C57 1055   6.205   0.611   2.460  0.3773  0.3333 -0.6998
    3CHTO  H114 1056   6.173   0.664   2.549  0.2479 -0.3785 -0.3210
    3CHTO   N10 1057   6.327   0.678   2.405 -0.7384  0.5200 -0.2107
    3CHTO  H106 1058   6.380   0.714   2.492  0.4802  0.6274 -0.9724
    3CHTO  H107 1059   6.390   0.606   2.353 -0.4775  0.4325  0.2195
    3CHTO   C58 1060   6.226   0.466   2.507  0.5144  0.3525  0.2478
    3CHTO  H115 1061   6.239   0.403   2.417  2.5099 -0.5264  1.1266
    3CHTO   O37 1062   6.102   0.420   2.564 -0.3026  0.2925 -0.2999
    3CHTO   C59 1063   5.992   0.393   2.476  0.1197  0.6479 -0.0752
    3CHTO  H116 1064   6.023   0.332   2.391 -0.6552  0.1000  0.0350
    3CHTO   C70 1065   5.880   0.326   2.555 -0.6388  0.3814  0.8652
    3CHTO   O46 1066   5.775   0.258   2.492  0.2348 -0.0249  0.5657
    3CHTO  H103 1067   5.710   0.317   2.460  0.3007 -0.5200 -0.5036
    3CHTO   O39 1068   6.318   0.448   2.611 -0.0554 -0.1527 -0.1922
    3CHTO   C60 1069   6.374   0.309   2.631  0.6951 -0.5997 -0.5635
    3CHTO  H117 1070   6.430   0.328   2.723 -0.8315  0.2754  0.2133
    3CHTO   C62 1071   6.282   0.188   2.682  0.4279  0.9103  0.5825
    3CHTO  H119 1072   6.216   0.223   2.764  0.3002 -0.5717  1.1299
    3CHTO   O43 1073   6.194   0.142   2.575 -0.7304  0.7057 -0.7420
    3CHTO  H101 1074   6.237   0.142   2.492 -1.5586 -1.3341 -1.1970
    3CHTO   C66 1075   6.382   0.072   2.726  0.3175  0.0282 -0.7750
    3CHTO  H123 1076   6.461   0.113   2.789 -0.1507 -2.7038  1.6768
    3CHTO   N12 1077   6.306  -0.033   2.801  0.2893  0.1098 -0.4458
    3CHTO  H110 1078   6.268  -0.115   2.742  0.6112  0.1336 -0.6868
    3CHTO  H111 1079   6.233   0.018   2.863  1.5643 -0.7151  1.8036
    3CHTO   C69 1080   6.468   0.020   2.608 -0.5967  0.3430  0.2374
    3CHTO  H126 1081   6.392  -0.006   2.531  0.3426 -2.6027  0.2288
    3CHTO   O41 1082   6.544   0.123   2.558  0.4095  0.6189 -0.1792
    3CHTO   C64 1083   6.475   0.257   2.525  0.5555  0.1065 -0.6886
    3CHTO  H121 1084   6.421   0.238   2.430  0.5381  1.8958 -1.0582
    3CHTO   C71 1085   6.587   0.358   2.514  0.3465  0.4665 -0.0765
    3CHTO   O47 1086   6.715   0.325   2.450  0.3076  0.0442  0.1575
    3CHTO  H104 1087   6.718   0.340   2.357  0.6957  0.1979  0.1924
    3CHTO   O34 1088   6.564  -0.111   2.621 -0.5565 -0.7214 -0.0069
    3CHTO   C49 1089   6.666  -0.217   2.620  0.1664  0.5949 -0.7904
    3CHTO   H91 1090   6.670  -0.257   2.518  2.6139 -4.1436  1.0098
    3CHTO   C47 1091   6.627  -0.324   2.733 -0.1022  0.1849  0.2081
    3CHTO   H89 1092   6.548  -0.385   2.684  1.5888 -0.1516 -2.1767
    3CHTO   O33 1093   6.570  -0.256   2.854  0.1444 -0.1101  0.2077
    3CHTO   H70 1094   6.577  -0.309   2.932 -0.8038 -3.3363 -1.7881
    3CHTO   C45 1095   6.764  -0.409   2.782  0.7071  0.2536  0.0642
    3CHTO   H87 1096   6.813  -0.353   2.863 -0.1993  1.6022 -0.3034
    3CHTO    N8 1097   6.720  -0.539   2.841  0.8078 -0.4459  0.2841
    3CHTO   H75 1098   6.757  -0.634   2.807  0.7132  0.0145 -1.1467
    3CHTO   H76 1099   6.730  -0.534   2.948 -2.0048  1.0407  0.5298
    3CHTO   C43 1100   6.867  -0.403   2.662  0.1064 -0.2591  0.5468
    3CHTO   H85 1101   6.945  -0.468   2.700  0.0185  0.5060  2.0457
    3CHTO   O29 1102   6.912  -0.269   2.649  0.0424 -0.1329  0.0809
    3CHTO   C50 1103   6.810  -0.167   2.647  0.6971 -0.3529 -1.0891
    3CHTO   H92 1104   6.807  -0.108   2.740  0.1763 -1.1931 -0.5745
    3CHTO   C54 1105   6.847  -0.053   2.543  0.0100 -0.2388 -0.3929
    3CHTO   O36 1106   6.976  -0.002   2.574  0.1394  0.0490 -0.1195
    3CHTO   H72 1107   6.987   0.016   2.666 -1.8699  0.6760  0.0199
    3CHTO   O27 1108   6.804  -0.458   2.542  0.0517 -0.1102 -0.0132
    3CHTO   C37 1109   6.827  -0.504   2.404 -0.3347 -0.1141 -0.1161
    3CHTO   H79 1110   6.910  -0.576   2.399 -1.2755 -1.5719  3.6935
    3CHTO   C38 1111   6.701  -0.578   2.337  0.1660  0.0989 -0.4865
    3CHTO   H80 1112   6.612  -0.519   2.362  0.7972  1.4262 -1.3199
    3CHTO   O31 1113   6.684  -0.707   2.399  0.2128 -0.0022 -0.5375
    3CHTO   H68 1114   6.683  -0.698   2.492 -1.8032  2.0814 -0.7235
    3CHTO   C39 1115   6.703  -0.600   2.176 -0.8569  0.5518  0.6177
    3CHTO   H81 1116   6.780  -0.677   2.167 -0.5377  0.8487  0.7887
    3CHTO    N7 1117   6.580  -0.659   2.113  0.1700  0.1484 -0.1830
    3CHTO   H73 1118   6.616  -0.687   2.015  0.7582 -2.8527  0.8260
    3CHTO   H74 1119   6.493  -0.596   2.114  0.3265  0.4037 -1.6653
    3CHTO   C40 1120   6.762  -0.468   2.109  0.1754  0.1643 -0.2821
    3CHTO   H82 1121   6.677  -0.402   2.125 -1.9034 -2.8683  1.7291
    3CHTO   O26 1122   6.878  -0.425   2.181 -0.0321  0.2783  0.3103
    3CHTO   C41 1123   6.859  -0.378   2.315 -1.5781  0.0775 -0.5888
    3CHTO   H83 1124   6.769  -0.315   2.320 -0.5670  1.6584 -1.9463
    3CHTO   C52 1125   6.988  -0.295   2.333  0.6407  0.2853  0.2537
    3CHTO   O35 1126   7.109  -0.368   2.331 -0.0790  0.1316  0.0743
    3CHTO   H71 1127   7.102  -0.419   2.253  2.4689  0.8249 -0.6411
    3CHTO   O28 1128   6.795  -0.486   1.969  0.0616  0.0988  0.1571
    3CHTO   C42 1129   6.856  -0.398   1.881  0.4295 -0.6146 -0.0355
    3CHTO   H84 1130   6.838  -0.439   1.782  0.1900  1.1001 -0.7244
    3CHTO   C44 1131   7.009  -0.377   1.890  0.2876  0.6101  0.2900
    3CHTO   H86 1132   7.039  -0.352   1.992 -1.8624 -0.8015  1.2977
    3CHTO   O32 1133   7.068  -0.506   1.855  0.2741  0.6988  0.7883
    3CHTO   H69 1134   7.060  -0.530   1.765 -1.1428  0.7581  0.8756
    3CHTO   C48 1135   7.058  -0.264   1.790  0.7996 -0.6460  0.4032
    3CHTO   H90 1136   7.020  -0.286   1.690 -4.4937 -0.3238  2.1880
    3CHTO    N9 1137   7.202  -0.249   1.785  0.2398  0.0072  1.1040
    3CHTO   H77 1138   7.252  -0.242   1.880  0.2166  0.0953  1.1105
    3CHTO   H78 1139   7.245  -0.330   1.728  2.6361  2.4844 -0.7891
    3CHTO   C51 1140   6.980  -0.134   1.826  0.2660 -0.5299 -0.1203
    3CHTO   H93 1141   6.992  -0.102   1.929  0.8356  0.2438 -0.4276
    3CHTO   O30 1142   6.841  -0.164   1.792 -0.4379 -0.9013 -0.2338
    3CHTO   C46 1143   6.778  -0.263   1.886 -0.1785  0.2718  0.2328
    3CHTO   H88 1144   6.777  -0.220   1.986 -2.1153  0.1435  0.2878
    3CHTO   C53 1145   6.633  -0.275   1.839  0.0596 -0.5020  0.0393
    3CHTO   O72 1146   6.535  -0.313   1.942  0.2796 -0.0738  0.2392
    3CHTO  H199 1147   6.462  -0.347   1.895  0.5956  1.8330 -1.6743
    3CHTO   O22 1148   7.015  -0.026   1.739  0.2557 -0.1412  0.2835
    3CHTO   C31 1149   6.947   0.103   1.747  0.8486  0.0734  0.3229
    3CHTO   H59 1150   6.865   0.089   1.821  0.7168  4.0185  1.0048
    3CHTO   C29 1151   7.037   0.221   1.805 -0.8202 -0.0034 -0.1954
    3CHTO   H57 1152   7.127   0.241   1.746  0.9493 -0.3049  2.3126
    3CHTO   O21 1153   7.088   0.179   1.934 -0.4274  0.3343  0.0404
    3CHTO   H37 1154   7.081   0.089   1.961 -0.3316  0.2054 -0.3670
    3CHTO   C27 1155   6.957   0.356   1.818  0.9855 -0.0962 -0.1165
    3CHTO   H55 1156   6.877   0.350   1.893 -0.7273 -0.6687 -1.9497
    3CHTO    N5 1157   7.040   0.473   1.853 -0.1489 -0.2479  1.0920
    3CHTO   H43 1158   7.128   0.469   1.790  1.3073  0.1766  3.0664
    3CHTO   H44 1159   7.056   0.475   1.960  0.2387 -1.5321  1.0713
    3CHTO   C25 1160   6.874   0.383   1.686  0.2302  0.2575  0.4333
    3CHTO   H53 1161   6.944   0.412   1.605 -0.6686  1.3623  0.0350
    3CHTO   O17 1162   6.801   0.265   1.652 -0.1253  0.5759  0.4210
    3CHTO   C32 1163   6.881   0.150   1.610 -0.0145  0.1257  0.0788
    3CHTO   H60 1164   6.967   0.169   1.546  0.8781 -2.3125  0.4724
    3CHTO   C36 1165   6.791   0.047   1.544 -0.0174 -0.8328 -0.1957
    3CHTO   O25 1166   6.858  -0.064   1.493  0.3631  0.2325  0.7608
    3CHTO   H40 1167   6.794  -0.108   1.441 -0.8214 -1.3382  3.4512
    3CHTO   O15 1168   6.770   0.511   1.708 -0.8905 -0.4075  0.2739
    3CHTO   C19 1169   6.660   0.556   1.628 -0.5435  0.0065  0.7181
    3CHTO   H47 1170   6.691   0.541   1.524 -0.2568  3.2774  0.2972
    3CHTO   C20 1171   6.525   0.494   1.645 -0.5212 -0.4486 -0.1028
    3CHTO   H48 1172   6.495   0.498   1.750 -0.0782  1.4538 -0.0241
    3CHTO   O19 1173   6.539   0.358   1.610 -0.2120 -0.1307 -0.2402
    3CHTO   H35 1174   6.462   0.308   1.632 -0.8620 -1.0121 -4.1759
    3CHTO   C21 1175   6.412   0.552   1.547  0.2597 -0.3249  0.5298
    3CHTO   H49 1176   6.421   0.508   1.447 -0.5858 -2.0704  1.2009
    3CHTO    N4 1177   6.278   0.506   1.597 -0.1308  0.0383 -0.2459
    3CHTO   H41 1178   6.253   0.555   1.690  1.3672  0.3101  0.0251
    3CHTO   H42 1179   6.198   0.527   1.528  2.0783  1.8075 -2.3726
    3CHTO   C22 1180   6.424   0.708   1.539 -0.8506 -0.5188 -0.2853
    3CHTO   H50 1181   6.368   0.751   1.622  0.1607  2.6261 -1.1417
    3CHTO   O14 1182   6.559   0.763   1.533  0.3614  0.1283  0.6092
    3CHTO   C23 1183   6.639   0.716   1.638  0.3241 -0.5958  0.3909
    3CHTO   H51 1184   6.601   0.745   1.737  2.2208 -0.6740  1.1799
    3CHTO   C34 1185   6.775   0.799   1.624 -0.1728  0.0178 -0.2619
    3CHTO   O23 1186   6.828   0.841   1.752  0.2807  0.4393  0.0232
    3CHTO   H38 1187   6.825   0.766   1.808 -0.6338 -0.4826 -1.2255
    3CHTO   O16 1188   6.357   0.752   1.418  0.1546  0.1610  0.3993
    3CHTO   C24 1189   6.307   0.902   1.406  0.1905 -1.1421  0.3792
    3CHTO   H52 1190   6.343   0.965   1.488 -2.3155 -1.3447  1.6667
    3CHTO   C26 1191   6.155   0.895   1.408  0.2890  0.3029  0.6643
    3CHTO   H54 1192   6.132   0.810   1.340  0.1324  0.2058  0.8378
    3CHTO   O20 1193   6.114   0.846   1.539 -0.4298  0.2615  0.3915
    3CHTO   H36 1194   6.025   0.819   1.529  0.0312 -0.4471 -2.1586
    3CHTO   C30 1195   6.090   1.033   1.368  0.0934 -0.8277 -0.0791
    3CHTO   H58 1196   6.102   1.109   1.447  0.9402 -2.6263  1.5447
    3CHTO    N6 1197   5.947   1.010   1.350 -0.3141 -0.0253  0.1001
    3CHTO   H45 1198   5.904   1.043   1.257 -3.2546 -3.5216  0.1230
    3CHTO   H46 1199   5.894   1.066   1.425 -0.2259 -1.0190  0.9244
    3CHTO   C33 1200   6.158   1.096   1.242  0.3370 -0.7551 -0.0876
    3CHTO   H61 1201   6.131   1.039   1.153 -1.2113 -0.5933  0.2619
    3CHTO   O18 1202   6.303   1.087   1.258 -0.1350  0.3621  0.3756
    3CHTO   C28 1203   6.361   0.957   1.274 -0.3389  0.7103 -0.2262
    3CHTO   H56 1204   6.343   0.887   1.193 -2.8612 -0.3519  1.2097
    3CHTO   C35 1205   6.510   0.985   1.293 -0.6064  0.2698 -0.2336
    3CHTO   O24 1206   6.581   1.069   1.200 -0.2323 -0.4599 -0.5456
    3CHTO   H39 1207   6.567   1.158   1.225 -1.4751 -1.0209  0.8171
    3CHTO    O9 1208   6.119   1.226   1.208 -0.5011 -0.5283  0.1038
    3CHTO   C13 1209   6.203   1.354   1.294 -0.3936 -0.2831 -0.3271
    3CHTO   H26 1210   6.226   1.310   1.393  0.8388 -3.4545 -1.9757
    3CHTO   C11 1211   6.106   1.474   1.303  0.5899  0.1913 -0.1870
    3CHTO   H24 1212   6.015   1.444   1.358  0.1783  1.2679 -0.2784
    3CHTO    O8 1213   6.061   1.521   1.172  0.3553 -0.1585 -0.0448
    3CHTO    H3 1214   5.996   1.463   1.137 -1.3615  0.1663  2.4542
    3CHTO    C9 1215   6.169   1.590   1.387 -0.2655  0.3686  0.8742
    3CHTO   H22 1216   6.187   1.548   1.487  0.8370  4.0610  2.3003
    3CHTO    N2 1217   6.076   1.699   1.406  0.3954  0.2317  0.1011
    3CHTO   H10 1218   6.041   1.696   1.508  0.9878  0.9144  0.3327
    3CHTO   H11 1219   5.992   1.708   1.338  1.6880  0.7796 -1.4563
    3CHTO    C7 1220   6.304   1.625   1.312 -0.2530 -0.2712  0.1278
    3CHTO   H20 1221   6.346   1.700   1.383 -0.8121 -0.5653  0.7787
    3CHTO    O4 1222   6.391   1.511   1.302  0.1914 -0.4062  0.5093
    3CHTO   C14 1223   6.339   1.394   1.244 -0.2005  1.0945  0.3256
    3CHTO   H27 1224   6.414   1.321   1.281 -0.9699  0.8805  1.4740
    3CHTO   C18 1225   6.354   1.401   1.089  0.4208  0.2259  0.0102
    3CHTO   O13 1226   6.307   1.280   1.028 -0.1930  0.1400 -0.5045
    3CHTO    H7 1227   6.314   1.291   0.936  1.2361  0.9727 -0.3161
    3CHTO    O2 1228   6.282   1.690   1.150 -0.0317  0.4908 -0.3001
    3CHTO    C1 1229   6.360   1.804   1.111  0.7822  0.1271  0.0117
    3CHTO   H14 1230   6.323   1.824   1.009 -2.7503 -1.6874  0.8337
    3CHTO    C2 1231   6.519   1.768   1.107  0.1251 -0.3965  0.1280
    3CHTO   H15 1232   6.538   1.717   1.202 -0.1581  0.1361  0.4724
    3CHTO    O6 1233   6.533   1.684   0.995 -0.4999 -0.4231  0.5869
    3CHTO    H1 1234   6.458   1.632   0.974 -2.3462  2.5030 -0.3259
    3CHTO    C3 1235   6.609   1.904   1.081 -0.8441  0.0986  0.2280
    3CHTO   H16 1236   6.605   1.938   0.977 -0.5281  0.7879  0.4320
    3CHTO    N1 1237   6.756   1.882   1.100 -0.6026  0.1095  0.4211
    3CHTO    H8 1238   6.799   1.978   1.077 -2.2770  1.2637  1.9777
    3CHTO    H9 1239   6.774   1.848   1.201  0.1064  1.4781  0.7620
    3CHTO    C4 1240   6.547   2.025   1.165 -0.0542 -0.0864  0.1077
    3CHTO   H17 1241   6.585   2.017   1.267  1.1897 -1.2631 -0.4305
    3CHTO    O1 1242   6.400   2.033   1.148 -0.6478  0.2557 -0.0352
    3CHTO    C5 1243   6.318   1.929   1.195  0.6835 -0.5812  1.0239
    3CHTO   H18 1244   6.327   1.901   1.300 -2.7293  0.4952  1.6761
    3CHTO   C16 1245   6.165   1.970   1.179 -0.4935  0.4476  0.0510
    3CHTO   O11 1246   6.147   2.105   1.219 -0.1577  0.0932 -0.6940
    3CHTO    H5 1247   6.055   2.118   1.228  0.0410  1.1790 -0.1582
    3CHTO    O3 1248   6.600   2.140   1.102  0.4209  0.8210  0.8150
    3CHTO    C6 1249   6.589   2.263   1.176 -0.5365 -0.1720 -0.7000
    3CHTO   H19 1250   6.512   2.258   1.254 -0.7392  1.6597 -0.7584
    3CHTO    C8 1251   6.725   2.294   1.245 -0.3012 -0.7755  0.1514
    3CHTO   H21 1252   6.797   2.292   1.163  0.7024 -0.8486  1.0281
    3CHTO    O7 1253   6.765   2.196   1.347  0.6930 -0.1887  0.3635
    3CHTO    H2 1254   6.845   2.220   1.391  1.0189 -0.5722 -0.0157
    3CHTO   C12 1255   6.728   2.441   1.293 -0.0131 -0.2425  0.3297
    3CHTO   H25 1256   6.664   2.442   1.384 -0.2961 -1.0368  0.1475
    3CHTO    N3 1257   6.867   2.488   1.339  0.2461  0.1956  0.3598
    3CHTO   H12 1258   6.945   2.414   1.330  1.3711  1.2454  1.2412
    3CHTO   H13 1259   6.873   2.519   1.443  1.6775  1.8220 -0.1762
    3CHTO   C15 1260   6.670   2.547   1.184  0.0506  0.2146 -0.2009
    3CHTO   H28 1261   6.742   2.565   1.104 -0.2142 -0.3776 -0.5806
    3CHTO   O10 1262   6.624   2.681   1.264  0.0528 -0.3161  0.2073
    3CHTO    H4 1263   6.699   2.733   1.287 -0.3630  1.1925 -1.7596
    3CHTO    O5 1264   6.539   2.502   1.137 -0.3600  0.1124  0.6045
    3CHTO   C10 1265   6.543   2.379   1.074 -0.5073 -0.3412  0.1397
    3CHTO   H23 1266   6.619   2.385   0.996 -1.5414 -0.0172 -0.8521
    3CHTO   C17 1267   6.404   2.358   1.021 -0.0296  0.2995 -0.1894
    3CHTO   O12 1268   6.404   2.284   0.897  0.2417 -0.6275 -0.1003
    3CHTO    H6 1269   6.353   2.327   0.831  1.2281 -0.2156 -0.6122
    4CHTO  H203 1270   5.395   6.800   3.019  0.0342 -0.4949  0.1444
    4CHTO   O82 1271   5.488   6.803   3.008 -0.0259  0.8937 -0.0057
    4CHTO  C123 1272   5.529   6.938   2.993  0.0840 -0.2324  0.4481
    4CHTO  H227 1273   5.452   7.011   3.022  2.5703  2.9374 -0.5693
    4CHTO   O77 1274   5.642   6.947   3.085 -0.1545  0.2126  0.1913
    4CHTO  C118 1275   5.698   7.080   3.093  0.4842 -0.3119 -0.0650
    4CHTO  H222 1276   5.622   7.143   3.140 -0.9513 -1.9601 -0.1255
    4CHTO  C125 1277   5.819   7.076   3.190  0.1983  0.0367 -0.4086
    4CHTO   O84 1278   5.781   7.060   3.325  0.8643  0.2314  0.5798
    4CHTO  H205 1279   5.808   6.975   3.354  1.3514 -0.0854 -0.7178
    4CHTO  C114 1280   5.749   7.141   2.960  0.1375  1.2811  0.4241
    4CHTO  H218 1281   5.844   7.092   2.942  0.7570  2.0354  1.6107
    4CHTO  C116 1282   5.645   7.111   2.843  0.1213  0.1293  0.0950
    4CHTO  H220 1283   5.559   7.180   2.832 -0.2606 -0.5512 -1.2865
    4CHTO   O79 1284   5.710   7.146   2.721 -0.5087  0.0150  0.2104
    4CHTO  H201 1285   5.740   7.234   2.727  0.7551 -0.2507 -1.7453
    4CHTO  C120 1286   5.581   6.971   2.848 -0.4206  0.0403  0.6723
    4CHTO  H224 1287   5.664   6.901   2.825 -1.6292 -0.2382 -3.2218
    4CHTO   N21 1288   5.487   6.953   2.736  0.1363  0.8958 -0.0216
    4CHTO  H211 1289   5.539   6.900   2.658  0.7834  1.6542 -0.1043
    4CHTO  H212 1290   5.407   6.888   2.768  0.9575 -0.8745 -1.4921
    4CHTO   O75 1291   5.773   7.276   2.985 -0.0131  0.4631  0.3555
    4CHTO  C112 1292   5.885   7.325   2.900  0.1911  0.1550  0.2336
    4CHTO  H216 1293   5.879   7.277   2.801  2.0691 -1.4173  0.8312
    4CHTO   O73 1294   6.013   7.292   2.963 -0.2298  0.1864 -0.7141
    4CHTO  C113 1295   6.117   7.332   2.874  0.1152 -0.0911 -0.2197
    4CHTO  H217 1296   6.103   7.279   2.777 -1.2006  2.4534 -1.4742
    4CHTO  C124 1297   6.240   7.275   2.933  0.0844  0.3465  0.2986
    4CHTO   O83 1298   6.344   7.280   2.836 -0.5685 -0.3370  0.0436
    4CHTO  H204 1299   6.335   7.233   2.755  0.7702 -0.2051 -0.1910
    4CHTO  C109 1300   6.124   7.496   2.864 -0.4667  0.0173 -0.2963
    4CHTO  H213 1301   6.128   7.538   2.966 -0.2869 -1.1809  0.2064
    4CHTO  C110 1302   5.986   7.538   2.792 -0.0989 -0.8562 -0.2409
    4CHTO  H214 1303   5.987   7.492   2.693  1.7858  0.1608 -0.7222
    4CHTO   O78 1304   5.993   7.683   2.770  0.1021 -0.1662  0.1833
    4CHTO  H200 1305   6.080   7.708   2.745  0.1757 -0.0969  0.5015
    4CHTO  C111 1306   5.865   7.482   2.869 -0.2086 -0.4040 -0.2771
    4CHTO  H215 1307   5.866   7.536   2.964  1.8097 -0.8843 -0.0122
    4CHTO   N19 1308   5.745   7.520   2.802 -0.1537 -0.1440 -0.7525
    4CHTO  H207 1309   5.741   7.628   2.798  0.2704 -0.1339 -0.8577
    4CHTO  H208 1310   5.656   7.484   2.852  1.8753 -1.8770  1.6893
    4CHTO   O74 1311   6.235   7.544   2.788  0.0019  0.0008  0.0469
    4CHTO  C115 1312   6.291   7.682   2.834  0.2468 -0.2378  0.8092
    4CHTO  H219 1313   6.214   7.746   2.877  0.7005  0.1672  1.0182
    4CHTO   O76 1314   6.384   7.671   2.934  0.0743 -0.2313  0.3165
    4CHTO  C122 1315   6.503   7.603   2.902  0.1439 -0.0905 -0.2900
    4CHTO  H226 1316   6.476   7.507   2.859 -0.2219  0.4902 -1.3725
    4CHTO  C126 1317   6.585   7.562   3.026  0.2108  0.6226 -0.1938
    4CHTO   O85 1318   6.517   7.489   3.132  0.3887  0.1297 -0.2378
    4CHTO  H206 1319   6.517   7.397   3.111 -1.0513  0.0478  0.0625
    4CHTO  C121 1320   6.584   7.670   2.788  0.1015 -1.0518 -0.0095
    4CHTO  H225 1321   6.681   7.712   2.821 -0.6202  0.5739  0.1045
    4CHTO   O81 1322   6.595   7.580   2.685 -0.6792  0.0427  0.1826
    4CHTO  H202 1323   6.641   7.608   2.608  1.4606 -0.2888  1.3227
    4CHTO  C119 1324   6.504   7.789   2.719 -0.0968  0.4350 -0.2354
    4CHTO  H223 1325   6.521   7.877   2.781 -0.8224 -0.4141  1.2077
    4CHTO  C117 1326   6.345   7.761   2.706 -0.4571 -0.1505 -0.1955
    4CHTO  H221 1327   6.317   7.690   2.628  1.6990 -1.8339  0.4839
    4CHTO   N20 1328   6.274   7.887   2.664  0.4790 -1.0281  0.0973
    4CHTO  H209 1329   6.242   7.948   2.747  1.3353 -0.2177 -0.1650
    4CHTO  H210 1330   6.317   7.944   2.584 -1.0908  2.2309  1.4677
    4CHTO   O80 1331   6.578   7.832   2.604 -0.1304  0.0779  0.5639
    4CHTO  C103 1332   6.659   7.978   2.601 -0.0619 -0.1829  0.7248
    4CHTO  H190 1333   6.604   8.054   2.657  2.1237 -0.5903  3.5580
    4CHTO  C101 1334   6.812   7.980   2.639 -0.1588  0.1945  0.0519
    4CHTO  H188 1335   6.871   7.900   2.595 -1.8466 -0.3740 -1.2144
    4CHTO   O68 1336   6.821   7.942   2.801  0.0974  0.1306  0.3406
    4CHTO  H168 1337   6.879   7.871   2.819  0.9415  0.8143  0.3742
    4CHTO   C99 1338   6.885   8.128   2.612 -0.2547 -0.1852 -0.1832
    4CHTO  H186 1339   6.836   8.205   2.676  1.0767 -1.3287  2.3049
    4CHTO   N17 1340   7.032   8.137   2.639 -0.5130 -0.2091  0.0268
    4CHTO  H174 1341   7.080   8.041   2.648 -0.1526  0.1463  2.1919
    4CHTO  H175 1342   7.051   8.180   2.737  0.2286  0.6979 -0.4998
    4CHTO   C97 1343   6.850   8.158   2.460 -0.3162 -0.3641  0.4897
    4CHTO  H184 1344   6.909   8.084   2.404  0.3335  0.1705  0.4684
    4CHTO   O64 1345   6.711   8.146   2.435  0.0805 -0.2275  0.3128
    4CHTO  C104 1346   6.654   8.018   2.444 -0.2612 -0.2310  0.0466
    4CHTO  H191 1347   6.709   7.940   2.390  1.7891  1.9129 -1.0546
    4CHTO  C108 1348   6.516   8.023   2.385 -0.1856 -0.0957  0.2701
    4CHTO   O71 1349   6.437   8.137   2.428 -0.5987  0.0213 -0.4559
    4CHTO  H171 1350   6.363   8.130   2.370  0.9465 -0.3293 -2.4516
    4CHTO   O62 1351   6.890   8.287   2.411  0.0593 -0.2868  0.1147
    4CHTO   C91 1352   6.916   8.315   2.276  0.6723  0.2866  0.1918
    4CHTO  H178 1353   6.881   8.234   2.211 -1.3863  0.4128  1.1151
    4CHTO   C92 1354   7.066   8.341   2.247  0.7241  0.6967 -0.1804
    4CHTO  H179 1355   7.098   8.429   2.305  0.4337  1.0951 -0.6185
    4CHTO   O66 1356   7.131   8.222   2.303  0.6108  0.4841  0.3230
    4CHTO  H166 1357   7.224   8.220   2.288  0.4729 -2.5381 -0.4494
    4CHTO   C93 1358   7.088   8.359   2.093 -0.2001  0.0477  0.6548
    4CHTO  H180 1359   7.058   8.264   2.048  0.8410  0.0019  0.0548
    4CHTO   N16 1360   7.234   8.370   2.054  0.5387 -0.1554 -0.1374
    4CHTO  H172 1361   7.274   8.466   2.080  2.0412 -0.4905 -1.1368
    4CHTO  H173 1362   7.233   8.359   1.946  0.5360  2.1021 -0.3827
    4CHTO   C94 1363   7.002   8.477   2.038 -0.2222  0.2933  1.2084
    4CHTO  H181 1364   7.064   8.564   2.016  0.1311 -0.5007 -1.1047
    4CHTO   O61 1365   6.905   8.522   2.137 -0.3045  0.0771  1.1512
    4CHTO   C95 1366   6.825   8.435   2.216  0.8299  0.5433  0.4362
    4CHTO  H182 1367   6.790   8.488   2.305 -1.6679 -1.2596  0.5988
    4CHTO  C106 1368   6.705   8.388   2.142  0.3735  0.7612  0.3945
    4CHTO   O69 1369   6.611   8.338   2.235  0.0258 -0.0020  0.7049
    4CHTO  H169 1370   6.526   8.365   2.206 -1.0965 -1.1464  2.8516
    4CHTO   O63 1371   6.915   8.442   1.904  0.4239  0.4984 -0.2908
    4CHTO   C96 1372   6.992   8.379   1.774 -0.3916  0.8096 -0.0748
    4CHTO  H183 1373   7.077   8.318   1.805 -0.7974  0.5798  0.5909
    4CHTO   C98 1374   7.034   8.478   1.669  0.1561 -0.0397 -0.4820
    4CHTO  H185 1375   6.944   8.540   1.658 -1.8745 -2.4071  1.8637
    4CHTO   O67 1376   7.143   8.557   1.716  0.3503 -0.1744  0.4868
    4CHTO  H167 1377   7.170   8.619   1.651 -1.1007  2.2560  2.1172
    4CHTO  C102 1378   7.070   8.407   1.528  0.3752  0.2313 -0.2199
    4CHTO  H189 1379   7.166   8.356   1.544  1.3921  1.5880 -1.8077
    4CHTO   N18 1380   7.099   8.495   1.408  0.3456  0.4489 -0.6698
    4CHTO  H176 1381   7.010   8.538   1.363 -0.4849 -1.9469 -1.3718
    4CHTO  H177 1382   7.176   8.569   1.427  0.2406  0.8500 -1.7321
    4CHTO  C105 1383   6.967   8.298   1.485 -0.7087 -0.3532 -0.0195
    4CHTO  H192 1384   6.881   8.346   1.437 -1.6959  0.7175  2.7287
    4CHTO   O65 1385   6.927   8.214   1.592  0.4856  0.2726 -0.0483
    4CHTO  C100 1386   6.882   8.284   1.709  0.6008  0.4800 -0.0634
    4CHTO  H187 1387   6.801   8.348   1.671  3.3516  3.0805 -1.8422
    4CHTO  C107 1388   6.825   8.184   1.815  0.1594  0.1110  0.3737
    4CHTO   O70 1389   6.913   8.079   1.843 -0.1738  0.2603 -0.3675
    4CHTO  H170 1390   6.897   8.034   1.924 -0.0582  0.8288 -0.0263
    4CHTO   O57 1391   7.043   8.186   1.379  0.2368 -0.0583  0.0824
    4CHTO   C85 1392   7.015   8.156   1.241 -0.6056  0.2159 -0.0544
    4CHTO  H157 1393   6.977   8.249   1.196 -0.8798  0.6654  1.0766
    4CHTO   C83 1394   6.893   8.063   1.242  0.4593 -0.5682  0.0191
    4CHTO  H155 1395   6.816   8.115   1.298 -0.5983 -1.4976 -0.5665
    4CHTO   O56 1396   6.922   7.947   1.322 -0.1933  0.0210  0.1275
    4CHTO  H135 1397   6.841   7.900   1.326  0.8707 -1.8745 -0.1044
    4CHTO   C81 1398   6.847   8.046   1.098  0.4146  0.2771  0.2638
    4CHTO  H153 1399   6.848   8.143   1.050  3.4894  0.4033  0.4986
    4CHTO   N14 1400   6.717   7.983   1.074 -0.5318 -0.4825  0.5448
    4CHTO  H141 1401   6.707   7.961   0.969 -0.3372  0.4273  0.3313
    4CHTO  H142 1402   6.638   8.051   1.097 -1.3222 -0.7733 -1.1649
    4CHTO   C79 1403   6.968   7.971   1.023 -0.1868 -0.2464  0.3252
    4CHTO  H151 1404   6.938   7.957   0.920  0.4161  1.1425 -0.0494
    4CHTO   O52 1405   7.083   8.057   1.023  0.4384  0.2089  0.1553
    4CHTO   C86 1406   7.127   8.095   1.156 -0.8728 -0.6752  0.2625
    4CHTO  H158 1407   7.158   8.002   1.208  2.8884 -0.1227 -0.8505
    4CHTO   C90 1408   7.257   8.184   1.138 -0.5146 -0.6575  0.1836
    4CHTO   O60 1409   7.226   8.313   1.086 -0.5970  0.0076 -0.7406
    4CHTO  H138 1410   7.290   8.375   1.115  1.0851 -0.8497 -2.5811
    4CHTO   O50 1411   7.013   7.843   1.072 -0.5597 -0.1419 -0.1140
    4CHTO   C73 1412   7.096   7.746   1.012 -0.5910  0.5704  0.1684
    4CHTO  H145 1413   7.165   7.798   0.944 -1.5764  0.3381 -1.0368
    4CHTO   C74 1414   7.001   7.649   0.931 -0.1406  0.3921 -0.2452
    4CHTO  H146 1415   6.935   7.701   0.860  0.9074 -0.6699 -2.0284
    4CHTO   O54 1416   7.091   7.574   0.854  0.7192  0.4072  0.7480
    4CHTO  H133 1417   7.041   7.499   0.826  0.4507 -0.8606  4.3695
    4CHTO   C75 1418   6.915   7.559   1.031 -0.1377  0.5076 -0.3112
    4CHTO  H147 1419   6.836   7.622   1.073  0.7128  1.9458 -0.8206
    4CHTO   N13 1420   6.838   7.458   0.952  0.6578 -0.8012 -0.3289
    4CHTO  H139 1421   6.754   7.501   0.899  0.3212  1.3597  1.8560
    4CHTO  H140 1422   6.806   7.378   1.017  0.3915 -0.4436 -0.0181
    4CHTO   C76 1423   7.013   7.497   1.146  0.0824  0.2396  0.2183
    4CHTO  H148 1424   7.071   7.425   1.087 -0.0254  0.5073 -0.2176
    4CHTO   O49 1425   7.100   7.596   1.211  0.4208  0.6530  0.1369
    4CHTO   C77 1426   7.182   7.670   1.117 -0.0522  0.6962 -0.0928
    4CHTO  H149 1427   7.241   7.596   1.063 -0.7025  0.5973 -0.6725
    4CHTO   C88 1428   7.287   7.755   1.198 -0.8528  0.3245 -0.3037
    4CHTO   O58 1429   7.358   7.832   1.113  0.0198 -0.0689  0.3276
    4CHTO  H136 1430   7.434   7.860   1.160 -1.6271 -0.8680  3.6825
    4CHTO   O51 1431   6.926   7.422   1.263  0.0391 -0.3514 -0.0016
    4CHTO   C78 1432   6.974   7.285   1.325 -0.4787 -0.3795 -0.1096
    4CHTO  H150 1433   6.937   7.289   1.429 -2.2027 -1.1954 -0.6637
    4CHTO   C80 1434   7.126   7.278   1.337  1.1686  0.1743  0.5816
    4CHTO  H152 1435   7.169   7.280   1.235 -0.4509 -1.4505 -0.1779
    4CHTO   O55 1436   7.186   7.382   1.415  0.0416  0.0451 -0.2043
    4CHTO  H134 1437   7.146   7.465   1.398 -1.3479 -0.2035  1.6842
    4CHTO   C84 1438   7.170   7.137   1.390  0.7150  0.8266 -0.2862
    4CHTO  H156 1439   7.122   7.127   1.487 -1.2735 -0.4659 -1.3720
    4CHTO   N15 1440   7.323   7.120   1.402  0.3458 -0.4993  0.2626
    4CHTO  H143 1441   7.352   7.102   1.300 -0.8892 -0.0590 -0.1772
    4CHTO  H144 1442   7.332   7.028   1.456  0.4554 -1.1381 -0.8219
    4CHTO   C87 1443   7.105   7.022   1.313  0.4706  0.1522  0.2639
    4CHTO  H159 1444   7.151   7.009   1.215 -0.5200  0.6002 -0.2741
    4CHTO   O53 1445   6.929   7.049   1.308 -0.1468 -0.1990 -0.7727
    4CHTO   C82 1446   6.906   7.169   1.244  0.6877 -0.2153  0.1728
    4CHTO  H154 1447   6.936   7.171   1.140 -0.3858  1.0372 -0.1280
    4CHTO   C89 1448   6.755   7.184   1.239 -0.4471 -0.0451 -0.0630
    4CHTO   O59 1449   6.702   7.122   1.121 -0.1579 -0.4538 -0.2937
    4CHTO  H137 1450   6.614   7.157   1.121 -0.5941 -1.5227  0.8015
    4CHTO   O45 1451   7.107   6.887   1.396  0.0949 -0.2605  0.2573
    4CHTO   C67 1452   7.089   6.764   1.333 -0.2038 -0.2023 -0.1050
    4CHTO  H124 1453   7.110   6.774   1.226  0.9635  0.9471  0.2171
    4CHTO   C65 1454   7.192   6.663   1.397 -0.1369  0.2554  0.1015
    4CHTO  H122 1455   7.287   6.716   1.394  0.7153 -1.1878  1.0576
    4CHTO   O44 1456   7.209   6.544   1.324 -0.0838 -0.6833 -0.5184
    4CHTO  H102 1457   7.138   6.485   1.343  0.8170 -1.4470  0.5530
    4CHTO   C63 1458   7.167   6.650   1.549  0.3883  0.2740  0.1026
    4CHTO  H120 1459   7.168   6.751   1.589  1.4751 -0.2092  1.3147
    4CHTO   N11 1460   7.283   6.582   1.618 -0.1234  0.0607  0.6145
    4CHTO  H108 1461   7.368   6.646   1.605  0.1446  0.5260  4.2397
    4CHTO  H109 1462   7.254   6.565   1.719 -0.2018 -0.8043  0.4480
    4CHTO   C61 1463   7.027   6.591   1.568  0.1795 -0.2641 -0.2268
    4CHTO  H118 1464   7.005   6.617   1.673 -0.8154 -2.3254  0.1043
    4CHTO   O40 1465   6.937   6.665   1.491  0.4294  0.0044 -0.1506
    4CHTO   C68 1466   6.950   6.709   1.349 -0.0334  0.0400 -0.2384
    4CHTO  H125 1467   6.874   6.790   1.333 -0.5164 -0.0014  1.7268
    4CHTO   C72 1468   6.918   6.597   1.250 -0.1179 -0.0727  0.6070
    4CHTO   O48 1469   6.779   6.553   1.246 -0.2829  0.8165  0.4504
    4CHTO  H105 1470   6.777   6.470   1.291  1.1810 -0.8092 -2.2930
    4CHTO   O38 1471   7.012   6.446   1.557 -0.4833 -0.7818 -0.0491
    4CHTO   C55 1472   6.943   6.366   1.652 -0.5611 -0.2032 -1.0012
    4CHTO  H112 1473   6.914   6.442   1.726  1.1887 -0.5704  0.0986
    4CHTO   C56 1474   7.036   6.257   1.712 -0.3162 -1.3978  0.6014
    4CHTO  H113 1475   7.076   6.199   1.627 -2.3372 -1.1919 -0.5289
    4CHTO   O42 1476   7.148   6.323   1.772 -0.0476 -0.1720 -0.2373
    4CHTO  H100 1477   7.138   6.331   1.865  1.8544 -0.4557  0.0074
    4CHTO   C57 1478   6.957   6.174   1.819 -0.3919  0.1717 -0.6286
    4CHTO  H114 1479   6.947   6.246   1.900  0.9298  0.9904 -1.1621
    4CHTO   N10 1480   7.033   6.061   1.875  0.4850  0.2492 -0.2633
    4CHTO  H106 1481   7.009   6.034   1.977  1.6281 -1.5105 -0.4329
    4CHTO  H107 1482   7.138   6.085   1.873  0.8716 -1.1704  1.4552
    4CHTO   C58 1483   6.819   6.137   1.774  0.8130  0.7182  0.3250
    4CHTO  H115 1484   6.823   6.043   1.715  0.4196 -0.1562  1.6503
    4CHTO   O37 1485   6.751   6.243   1.709  0.0443  0.2938  0.5885
    4CHTO   C59 1486   6.806   6.313   1.595  0.3735  0.1328 -0.1450
    4CHTO  H116 1487   6.835   6.248   1.512  1.3139 -0.4312  0.6069
    4CHTO   C70 1488   6.714   6.426   1.545  0.4534 -0.4069 -0.4112
    4CHTO   O46 1489   6.582   6.394   1.508 -0.1957 -0.1352 -0.3424
    4CHTO  H103 1490   6.589   6.344   1.428 -0.9022 -1.3062  0.3079
    4CHTO   O39 1491   6.734   6.102   1.907  0.2970 -0.2603 -0.4953
    4CHTO   C60 1492   6.596   6.077   1.882 -0.0007  0.4306  0.2580
    4CHTO  H117 1493   6.559   6.122   1.790 -2.1842 -1.3918  0.1852
    4CHTO   C62 1494   6.564   5.923   1.864  0.3479 -0.5085  0.5503
    4CHTO  H119 1495   6.626   5.919   1.772 -1.4445 -2.4204 -0.6106
    4CHTO   O43 1496   6.633   5.848   1.962  0.4109  0.5857  0.4857
    4CHTO  H101 1497   6.657   5.905   2.032 -1.3117  3.4967 -1.2304
    4CHTO   C66 1498   6.404   5.898   1.831  0.1406  0.0472  0.5114
    4CHTO  H123 1499   6.387   5.953   1.738  0.0451 -0.0122  0.4934
    4CHTO   N12 1500   6.374   5.759   1.798 -0.1513  0.0458  0.5498
    4CHTO  H110 1501   6.266   5.754   1.794 -0.1578 -0.6560  1.4399
    4CHTO  H111 1502   6.414   5.691   1.872 -1.2301 -0.9215  0.2602
    4CHTO   C69 1503   6.316   5.960   1.937 -0.5237  0.0038 -0.4460
    4CHTO  H126 1504   6.330   5.903   2.032  1.1220 -1.2627 -1.4252
    4CHTO   O41 1505   6.358   6.100   1.955 -0.2935 -0.0427  0.1680
    4CHTO   C64 1506   6.502   6.126   1.996  0.5636  0.4719  0.5242
    4CHTO  H121 1507   6.532   6.078   2.092 -1.8389 -0.9502  0.6078
    4CHTO   C71 1508   6.521   6.279   2.025 -0.4024  0.5143  0.5382
    4CHTO   O47 1509   6.661   6.310   2.059  0.2428 -0.1104  0.0077
    4CHTO  H104 1510   6.658   6.391   2.106 -0.2646  0.2876 -0.7009
    4CHTO   O34 1511   6.161   5.953   1.893 -0.6624  0.8538 -0.5342
    4CHTO   C49 1512   6.048   6.051   1.873  0.3302 -0.3051  0.2495
    4CHTO   H91 1513   6.016   6.102   1.964  0.0661  0.0631 -0.0511
    4CHTO   C47 1514   5.930   5.962   1.819 -0.1479  0.0016 -0.8168
    4CHTO   H89 1515   5.845   6.034   1.819  0.1427  0.3677 -2.7079
    4CHTO   O33 1516   5.898   5.862   1.912  0.0012 -0.0736  0.3071
    4CHTO   H70 1517   5.970   5.832   1.965  0.8290  0.7282 -0.3445
    4CHTO   C45 1518   5.953   5.906   1.676 -0.2014  0.6154  0.7636
    4CHTO   H87 1519   5.992   5.803   1.682 -0.8313  0.3611  0.5276
    4CHTO    N8 1520   5.825   5.896   1.602  0.4354 -0.0149 -0.2914
    4CHTO   H75 1521   5.848   5.936   1.504  0.4013  0.2669 -0.1830
    4CHTO   H76 1522   5.802   5.790   1.594  1.7052 -0.2199 -1.4004
    4CHTO   C43 1523   6.058   5.996   1.606  0.7038  0.0954  0.5501
    4CHTO   H85 1524   6.151   5.958   1.649  0.7913  0.5007  0.7193
    4CHTO   O29 1525   6.047   6.136   1.631  0.2523  0.3182  0.0091
    4CHTO   C50 1526   6.082   6.162   1.769 -0.9470  0.0728 -0.5846
    4CHTO   H92 1527   6.190   6.182   1.776 -0.6297 -1.7440  0.0211
    4CHTO   C54 1528   6.009   6.295   1.802 -0.2766 -0.0244  0.2394
    4CHTO   O36 1529   6.027   6.354   1.934  0.2834  0.3722 -0.8823
    4CHTO   H72 1530   5.959   6.315   1.986  0.6152 -2.7506 -2.7163
    4CHTO   O27 1531   6.074   5.955   1.468  0.3129 -0.2350  0.1332
    4CHTO   C37 1532   6.187   5.930   1.384  0.5189 -0.0152 -0.1968
    4CHTO   H79 1533   6.152   5.927   1.280 -0.1257 -1.2699  0.0506
    4CHTO   C38 1534   6.303   6.041   1.402  0.0545  0.3676 -0.8193
    4CHTO   H80 1535   6.317   6.052   1.511  1.1175 -0.5884 -0.8531
    4CHTO   O31 1536   6.264   6.168   1.350  0.0701 -0.3101  0.5795
    4CHTO   H68 1537   6.303   6.244   1.389  0.7022 -0.9028  1.1233
    4CHTO   C39 1538   6.440   5.988   1.338  0.7676 -0.0097 -1.2707
    4CHTO   H81 1539   6.443   5.978   1.230 -0.3261 -1.4726 -1.1868
    4CHTO    N7 1540   6.556   6.069   1.392  0.6502 -0.2751 -0.0993
    4CHTO   H73 1541   6.525   6.138   1.469  0.7625 -0.9029  0.5055
    4CHTO   H74 1542   6.604   6.122   1.310  0.1676  1.1011  0.4896
    4CHTO   C40 1543   6.466   5.845   1.397  0.4696 -0.5072  0.9539
    4CHTO   H82 1544   6.471   5.844   1.506 -2.2811 -1.5326  1.1185
    4CHTO   O26 1545   6.365   5.757   1.355 -0.0477 -1.0228  0.7996
    4CHTO   C41 1546   6.239   5.787   1.418 -0.8186  0.3961  0.2613
    4CHTO   H83 1547   6.248   5.778   1.528  1.6651 -0.0005  0.0614
    4CHTO   C52 1548   6.148   5.672   1.377 -0.0190  0.1130  0.2492
    4CHTO   O35 1549   6.192   5.550   1.421 -0.3734 -0.6424  1.0728
    4CHTO   H71 1550   6.246   5.504   1.360 -2.6689 -1.0587 -0.7089
    4CHTO   O28 1551   6.586   5.783   1.350 -0.7966 -0.5750 -0.1059
    4CHTO   C42 1552   6.670   5.689   1.425 -0.0565 -0.4759 -1.0272
    4CHTO   H84 1553   6.741   5.639   1.358  0.7739 -1.9937  0.9259
    4CHTO   C44 1554   6.593   5.580   1.496  0.1839  0.3215 -0.7348
    4CHTO   H86 1555   6.518   5.627   1.559  1.1429 -0.2909  0.9032
    4CHTO   O32 1556   6.524   5.507   1.396 -0.1485 -0.5098  0.2856
    4CHTO   H69 1557   6.432   5.522   1.405  0.1143  1.4556 -0.0237
    4CHTO   C48 1558   6.679   5.484   1.588 -0.4541 -0.1136 -0.3073
    4CHTO   H90 1559   6.741   5.420   1.525 -0.5458  1.1709 -1.7085
    4CHTO    N9 1560   6.597   5.381   1.654 -0.0264 -0.7695 -0.4440
    4CHTO   H77 1561   6.550   5.318   1.580 -1.2068 -1.0520  0.5319
    4CHTO   H78 1562   6.518   5.436   1.701 -0.9961 -1.6560 -1.0157
    4CHTO   C51 1563   6.761   5.575   1.692  0.3493  0.4961  0.0122
    4CHTO   H93 1564   6.689   5.638   1.745 -0.0359  0.1208 -0.0616
    4CHTO   O30 1565   6.855   5.653   1.618 -0.1859  0.1329  0.3280
    4CHTO   C46 1566   6.761   5.767   1.527  0.3904 -0.2369  0.0529
    4CHTO   H88 1567   6.703   5.825   1.599  3.1736  0.3753  1.8974
    4CHTO   C53 1568   6.850   5.867   1.443  0.5358 -0.1613 -0.0200
    4CHTO   O72 1569   6.948   5.922   1.535  0.6020  0.2843  0.3851
    4CHTO  H199 1570   7.020   5.865   1.553  0.7296  0.7053  1.2362
    4CHTO   O22 1571   6.844   5.508   1.788 -0.1282  0.0024 -0.1342
    4CHTO   C31 1572   6.833   5.544   1.930  0.2732  0.2105 -0.8955
    4CHTO   H59 1573   6.808   5.653   1.935  0.7943  0.3147 -0.4905
    4CHTO   C29 1574   6.719   5.471   2.004  0.7765 -0.3120 -0.1460
    4CHTO   H57 1575   6.740   5.363   2.004  0.3631 -0.3915 -0.8880
    4CHTO   O21 1576   6.596   5.504   1.935 -0.0352  0.3540 -0.4728
    4CHTO   H37 1577   6.525   5.475   1.989  0.9197 -2.7122 -0.7246
    4CHTO   C27 1578   6.712   5.517   2.158 -0.1290 -0.7966  0.1787
    4CHTO   H55 1579   6.664   5.616   2.159 -1.1941 -1.2571 -1.7296
    4CHTO    N5 1580   6.628   5.427   2.239  0.3866  0.1645  0.0539
    4CHTO   H43 1581   6.527   5.407   2.204 -1.1180  1.4185  3.3766
    4CHTO   H44 1582   6.626   5.477   2.335 -2.5062  1.2024 -0.4928
    4CHTO   C25 1583   6.852   5.531   2.220 -0.2161 -0.6068 -0.7657
    4CHTO   H53 1584   6.895   5.431   2.234  0.7172 -0.1853 -0.5705
    4CHTO   O17 1585   6.947   5.595   2.132 -0.2734 -0.5543 -0.1589
    4CHTO   C32 1586   6.967   5.532   2.009 -0.1205 -0.6627  0.7268
    4CHTO   H60 1587   6.994   5.427   2.020 -0.5140 -0.7921  0.4517
    4CHTO   C36 1588   7.080   5.605   1.923 -0.8344  0.6915  0.4965
    4CHTO   O25 1589   7.064   5.743   1.928  0.4073 -0.0142 -0.0001
    4CHTO   H40 1590   7.113   5.780   1.998  1.4205  1.3292 -1.3804
    4CHTO   O15 1591   6.853   5.620   2.341 -0.5747  0.2541 -0.6416
    4CHTO   C19 1592   6.908   5.752   2.381  0.2854 -0.3465  0.5568
    4CHTO   H47 1593   6.895   5.754   2.490 -1.4660 -0.1179  0.3657
    4CHTO   C20 1594   7.057   5.772   2.342  0.0248 -0.2497  0.1496
    4CHTO   H48 1595   7.070   5.771   2.233  0.4670 -0.8511  0.2050
    4CHTO   O19 1596   7.138   5.669   2.399  0.3265  0.5691  0.0363
    4CHTO   H35 1597   7.127   5.674   2.492 -1.3840 -0.9745 -0.0439
    4CHTO   C21 1598   7.121   5.920   2.394  0.0828  0.4458 -0.7231
    4CHTO   H49 1599   7.112   5.926   2.503  1.4584  0.1884 -0.5913
    4CHTO    N4 1600   7.267   5.939   2.370  1.2087 -0.4227 -0.6169
    4CHTO   H41 1601   7.306   5.839   2.378 -2.1439 -1.8063 -0.6767
    4CHTO   H42 1602   7.282   5.967   2.266 -1.2198 -2.3942 -1.5505
    4CHTO   C22 1603   7.023   6.033   2.338  0.4380 -0.3274  0.0816
    4CHTO   H50 1604   7.024   6.039   2.229  0.5107  0.1376  0.1100
    4CHTO   O14 1605   6.889   6.001   2.372 -0.3494  0.3907 -0.0410
    4CHTO   C23 1606   6.833   5.877   2.319 -0.8248  0.1228  0.6380
    4CHTO   H51 1607   6.850   5.885   2.211 -2.3565  1.5576  0.4901
    4CHTO   C34 1608   6.681   5.868   2.346 -0.4468  0.7036 -0.0777
    4CHTO   O23 1609   6.613   5.980   2.289  0.0810  0.4078  0.1502
    4CHTO   H38 1610   6.592   6.051   2.347 -2.3384 -0.4586  0.3930
    4CHTO   O16 1611   7.050   6.155   2.407  0.2262  0.0483  0.2367
    4CHTO   C24 1612   6.966   6.288   2.383 -0.1344 -0.1023 -0.2628
    4CHTO   H52 1613   6.903   6.280   2.294  0.9076 -0.8643 -0.9354
    4CHTO   C26 1614   7.072   6.398   2.380 -0.2828  0.3210  0.3511
    4CHTO   H54 1615   7.154   6.368   2.311 -1.7099  1.2340 -1.8349
    4CHTO   O20 1616   7.026   6.527   2.330  0.5970 -0.1536 -0.4998
    4CHTO   H36 1617   6.944   6.555   2.365 -0.7933  1.0893 -4.4673
    4CHTO   C30 1618   7.131   6.437   2.522 -0.6347  0.6654  0.5819
    4CHTO   H58 1619   7.112   6.544   2.542  0.6408  0.8290  0.9205
    4CHTO    N6 1620   7.281   6.420   2.531  0.5251  0.2735 -0.4020
    4CHTO   H45 1621   7.308   6.506   2.590 -0.2012  0.9201 -0.9987
    4CHTO   H46 1622   7.295   6.330   2.589 -0.0225  1.1463  1.1019
    4CHTO   C33 1623   7.052   6.372   2.642  0.1328  0.5403  0.1787
    4CHTO   H61 1624   7.079   6.265   2.637 -1.0647  0.2186  0.5248
    4CHTO   O18 1625   6.911   6.385   2.616 -0.2250  0.5216  0.6661
    4CHTO   C28 1626   6.867   6.301   2.506 -0.0430  0.1079  0.7905
    4CHTO   H56 1627   6.845   6.202   2.546  1.4520 -1.3838 -1.9616
    4CHTO   C35 1628   6.732   6.345   2.456  0.4429  0.7062 -0.1564
    4CHTO   O24 1629   6.730   6.475   2.392  0.0831  0.2075 -0.7516
    4CHTO   H39 1630   6.752   6.536   2.460 -2.0962  0.6573 -0.4117
    4CHTO    O9 1631   7.091   6.421   2.774 -0.0626  0.6158 -0.3985
    4CHTO   C13 1632   7.169   6.305   2.864 -1.0493 -0.0587 -1.3718
    4CHTO   H26 1633   7.257   6.268   2.807 -0.2156 -1.5651  0.8192
    4CHTO   C11 1634   7.065   6.190   2.899  0.4823  0.8712 -0.5659
    4CHTO   H24 1635   7.047   6.136   2.805 -2.3409 -2.1182  1.5600
    4CHTO    O8 1636   6.942   6.237   2.954 -0.2381  0.3991 -0.2134
    4CHTO    H3 1637   6.905   6.196   3.029 -0.1546  0.2412 -0.2571
    4CHTO    C9 1638   7.132   6.091   3.002 -0.1927 -0.2745 -0.1161
    4CHTO   H22 1639   7.227   6.062   2.955 -0.2735 -1.3645  0.3579
    4CHTO    N2 1640   7.059   5.962   3.015  0.4780  0.0329 -0.3064
    4CHTO   H10 1641   6.995   5.954   3.101  1.2350  0.4216  0.2989
    4CHTO   H11 1642   7.125   5.876   3.007  1.2412  0.4918  0.9530
    4CHTO    C7 1643   7.180   6.167   3.138  0.6390  0.0493 -0.1225
    4CHTO   H20 1644   7.288   6.140   3.143  0.3842 -0.8838  0.6171
    4CHTO    O4 1645   7.166   6.314   3.117  0.4483  0.2697  0.9740
    4CHTO   C14 1646   7.232   6.359   2.998 -0.2036  0.2652  0.0773
    4CHTO   H27 1647   7.336   6.321   3.009  0.0439  0.9125  0.0135
    4CHTO   C18 1648   7.234   6.513   3.010 -0.1155 -0.2326 -0.4802
    4CHTO   O13 1649   7.338   6.534   3.109  0.2775 -0.0010 -0.1668
    4CHTO    H7 1650   7.337   6.624   3.135  0.6740  0.8081 -2.7884
    4CHTO    O2 1651   7.100   6.126   3.257 -0.6009  0.0577  0.3874
    4CHTO    C1 1652   7.162   6.082   3.378 -0.3912  0.1425 -0.1705
    4CHTO   H14 1653   7.267   6.119   3.379  0.7575 -2.7820 -3.3039
    4CHTO    C2 1654   7.170   5.922   3.394 -0.2181  0.3841 -1.0314
    4CHTO   H15 1655   7.068   5.881   3.394 -0.0911  0.0681 -1.1847
    4CHTO    O6 1656   7.238   5.867   3.280 -0.0141 -0.1017 -0.2809
    4CHTO    H1 1657   7.179   5.865   3.207 -1.0301 -2.2254  0.5593
    4CHTO    C3 1658   7.250   5.891   3.532 -0.2017 -0.3416  0.5761
    4CHTO   H16 1659   7.355   5.922   3.520 -0.2690  0.0394  0.9693
    4CHTO    N1 1660   7.246   5.744   3.565  0.3193 -0.6130  0.0720
    4CHTO    H8 1661   7.146   5.713   3.590  0.0188 -0.0802 -0.4841
    4CHTO    H9 1662   7.288   5.678   3.490 -0.8309 -0.3541 -0.8129
    4CHTO    C4 1663   7.194   5.980   3.657 -0.3655 -0.0135 -0.3493
    4CHTO   H17 1664   7.098   5.946   3.696 -1.3898  1.0835 -1.8620
    4CHTO    O1 1665   7.175   6.123   3.622 -0.1722 -0.0880 -0.7254
    4CHTO    C5 1666   7.096   6.147   3.502 -0.7347 -0.5195 -0.5023
    4CHTO   H18 1667   6.997   6.107   3.523 -1.0190 -0.1212 -1.0759
    4CHTO   C16 1668   7.078   6.303   3.493  0.4618  0.4996 -0.0203
    4CHTO   O11 1669   7.187   6.358   3.421  0.6298  0.3633 -0.0440
    4CHTO    H5 1670   7.171   6.449   3.438 -0.6710 -0.0615  1.1805
    4CHTO    O3 1671   7.287   5.978   3.762  0.0024  0.3352 -0.3604
    4CHTO    C6 1672   7.258   5.984   3.902  0.4340  0.2470 -0.1896
    4CHTO   H19 1673   7.162   6.025   3.934  0.5541 -0.4112  1.0668
    4CHTO    C8 1674   7.260   5.840   3.962 -0.3835  0.2677  0.3955
    4CHTO   H21 1675   7.352   5.789   3.932 -0.0482  2.1935 -2.0874
    4CHTO    O7 1676   7.151   5.770   3.905 -0.0527 -0.5183  0.1636
    4CHTO    H2 1677   7.151   5.687   3.947 -2.6492 -0.5929  0.0978
    4CHTO   C12 1678   7.249   5.848   4.122  0.7601 -0.0219 -0.1019
    4CHTO   H25 1679   7.156   5.906   4.140  1.3442  0.8682  0.0892
    4CHTO    N3 1680   7.229   5.708   4.174 -0.2917  0.0192  0.4457
    4CHTO   H12 1681   7.294   5.681   4.257 -1.1039 -0.4633  0.9297
    4CHTO   H13 1682   7.132   5.660   4.168 -0.3761 -0.3368  3.4973
    4CHTO   C15 1683   7.372   5.933   4.168  0.0642 -0.0887 -0.0005
    4CHTO   H28 1684   7.464   5.886   4.131 -1.0783 -0.4642 -2.4481
    4CHTO   O10 1685   7.368   5.949   4.316 -0.5221 -0.0108  0.3478
    4CHTO    H4 1686   7.449   5.981   4.351 -0.5218  0.7875 -0.3609
    4CHTO    O5 1687   7.364   6.068   4.113  0.3398  0.2829 -0.1669
    4CHTO   C10 1688   7.370   6.068   3.971  0.8982  0.6165 -0.3766
    4CHTO   H23 1689   7.465   6.024   3.941  0.9101 -0.0832  0.6579
    4CHTO   C17 1690   7.367   6.218   3.920  0.5897  0.5992 -0.5496
    4CHTO   O12 1691   7.477   6.289   3.968 -0.2598 -0.1116 -0.0378
    4CHTO    H6 1692   7.484   6.369   3.919 -0.8244 -0.3110 -0.4473
    5CHTO  H203 1693   6.761   3.804  -0.279  0.1777 -0.4633  2.0193
    5CHTO   O82 1694   6.669   3.786  -0.281  0.0608  0.2704  0.1396
    5CHTO  C123 1695   6.624   3.694  -0.175  0.1377  0.5080  0.7522
    5CHTO  H227 1696   6.678   3.716  -0.082  0.4577 -2.6549  1.3511
    5CHTO   O77 1697   6.482   3.738  -0.170  0.2017 -0.5895  0.0976
    5CHTO  C118 1698   6.404   3.686  -0.058  0.2191  0.2237  0.5119
    5CHTO  H222 1699   6.447   3.720   0.037  0.9142 -2.8750  1.3420
    5CHTO  C125 1700   6.263   3.743  -0.079  0.0721 -0.7102  0.0973
    5CHTO   O84 1701   6.252   3.869  -0.006  0.5306  0.2422  1.1389
    5CHTO  H205 1702   6.319   3.920  -0.047 -1.0252  1.0740 -0.3738
    5CHTO  C114 1703   6.412   3.532  -0.069  0.5444 -0.2914 -0.8717
    5CHTO  H218 1704   6.344   3.495  -0.146 -1.2402 -0.5513  0.7926
    5CHTO  C116 1705   6.547   3.467  -0.098 -0.1196 -1.1481  0.0742
    5CHTO  H220 1706   6.600   3.482  -0.002 -0.8953  3.1946 -0.0790
    5CHTO   O79 1707   6.537   3.321  -0.109 -0.2697  0.2561  0.9597
    5CHTO  H201 1708   6.562   3.286  -0.026  0.6065 -0.0107  0.5811
    5CHTO  C120 1709   6.627   3.547  -0.215 -0.1403 -0.1429  0.6605
    5CHTO  H224 1710   6.566   3.523  -0.305 -1.7726  1.0416  1.4253
    5CHTO   N21 1711   6.766   3.491  -0.226 -1.0733 -0.2511 -0.1218
    5CHTO  H211 1712   6.812   3.469  -0.131  1.2441  2.6077 -0.4823
    5CHTO  H212 1713   6.766   3.404  -0.290  0.1707  0.3858 -1.0328
    5CHTO   O75 1714   6.362   3.498   0.059 -0.2993  0.1777 -0.3391
    5CHTO  C112 1715   6.232   3.398   0.061  0.0209 -0.3054 -0.0926
    5CHTO  H216 1716   6.271   3.305   0.105  0.4942 -0.0567  0.0087
    5CHTO   O73 1717   6.179   3.375  -0.065  0.4467  0.5834 -0.1905
    5CHTO  C113 1718   6.072   3.276  -0.071 -0.9769  0.0066 -0.1183
    5CHTO  H217 1719   6.099   3.174  -0.036  1.8182 -0.2157 -2.6728
    5CHTO  C124 1720   6.035   3.258  -0.221  0.6811  0.2957  0.0122
    5CHTO   O83 1721   6.001   3.383  -0.286 -0.2842  0.3210 -0.3460
    5CHTO  H204 1722   5.908   3.395  -0.281 -0.2979 -0.3600  2.0869
    5CHTO  C109 1723   5.954   3.325   0.018  0.8125 -0.7196  0.8965
    5CHTO  H213 1724   5.912   3.417  -0.024  0.7089 -1.4980 -0.7554
    5CHTO  C110 1725   6.002   3.357   0.162 -0.3008 -0.0250  0.6010
    5CHTO  H214 1726   6.043   3.266   0.205  1.7727  0.4827 -0.2482
    5CHTO   O78 1727   5.891   3.398   0.236 -0.2295  0.0782 -0.2038
    5CHTO  H200 1728   5.896   3.357   0.320  1.1330  0.5533 -0.0522
    5CHTO  C111 1729   6.121   3.457   0.153  0.1079 -0.0648  0.0067
    5CHTO  H215 1730   6.086   3.546   0.098 -2.3500 -0.7443  0.4117
    5CHTO   N19 1731   6.168   3.500   0.287  0.0272 -0.2528 -0.4352
    5CHTO  H207 1732   6.084   3.552   0.331 -0.8101  0.4330 -2.7389
    5CHTO  H208 1733   6.189   3.411   0.344 -1.1689  0.2696  0.8366
    5CHTO   O74 1734   5.843   3.226   0.005  0.0868 -0.6344  0.3241
    5CHTO  C115 1735   5.700   3.277  -0.027  0.5573 -0.0566  0.0650
    5CHTO  H219 1736   5.698   3.386  -0.038  0.9225 -0.0824 -0.2985
    5CHTO   O76 1737   5.655   3.221  -0.153 -0.4288  0.0053 -0.3890
    5CHTO  C122 1738   5.652   3.075  -0.149 -0.2206 -0.2078 -0.4514
    5CHTO  H226 1739   5.752   3.035  -0.167 -0.4456 -0.3067 -1.5224
    5CHTO  C126 1740   5.580   3.026  -0.279  0.3512 -0.2896 -0.8102
    5CHTO   O85 1741   5.464   3.104  -0.301 -0.1431 -0.4359  0.0477
    5CHTO  H206 1742   5.415   3.124  -0.224 -0.2273 -0.7658  0.0792
    5CHTO  C121 1743   5.594   3.008  -0.022 -0.1737  0.1112 -0.2311
    5CHTO  H225 1744   5.519   2.938  -0.065 -0.0911 -0.4687  0.5569
    5CHTO   O81 1745   5.699   2.947   0.049 -0.1126  0.1484  0.0982
    5CHTO  H202 1746   5.666   2.925   0.134 -1.3807  0.5111 -0.2816
    5CHTO  C119 1747   5.520   3.113   0.063 -0.1835  0.5858 -0.5270
    5CHTO  H223 1748   5.435   3.142   0.001 -0.2502  2.7348  0.5354
    5CHTO  C117 1749   5.613   3.242   0.096 -0.0803 -0.2315  0.4950
    5CHTO  H221 1750   5.684   3.228   0.177 -1.7135 -2.9743  1.5344
    5CHTO   N20 1751   5.523   3.347   0.156  0.0334 -0.4347 -0.0057
    5CHTO  H209 1752   5.570   3.444   0.150 -0.3723 -0.1692  1.1354
    5CHTO  H210 1753   5.460   3.322   0.240 -0.1342 -2.0499 -0.5819
    5CHTO   O80 1754   5.446   3.050   0.184  0.3963  0.4600 -0.4403
    5CHTO  C103 1755   5.393   2.890   0.187 -0.5826  0.3056 -0.3539
    5CHTO  H190 1756   5.397   2.835   0.093 -0.4106  0.1770 -0.2726
    5CHTO  C101 1757   5.459   2.799   0.292  1.0263 -0.7939 -0.0881
    5CHTO  H188 1758   5.461   2.847   0.390 -1.1151 -1.3657  0.2551
    5CHTO   O68 1759   5.601   2.768   0.246 -0.6788 -0.0302  0.6468
    5CHTO  H168 1760   5.652   2.847   0.247  1.9527 -1.6632  0.1622
    5CHTO   C99 1761   5.375   2.665   0.307 -0.3426  0.8522 -0.1004
    5CHTO  H186 1762   5.377   2.621   0.205  4.2563  0.1264  0.1910
    5CHTO   N17 1763   5.428   2.561   0.406  0.0152 -0.1410 -0.2620
    5CHTO  H174 1764   5.427   2.603   0.506  0.7981  1.0796 -0.7631
    5CHTO  H175 1765   5.528   2.533   0.377 -0.3127 -2.2754  0.5409
    5CHTO   C97 1766   5.225   2.705   0.342 -0.0067  1.0233 -0.3594
    5CHTO  H184 1767   5.225   2.750   0.442  5.3995 -4.4243  2.4546
    5CHTO   O64 1768   5.171   2.786   0.236 -0.0430 -0.2274 -0.3373
    5CHTO  C104 1769   5.244   2.912   0.218 -0.6132 -0.6218  0.1471
    5CHTO  H191 1770   5.235   2.980   0.302 -0.2019  1.6821 -1.6149
    5CHTO  C108 1771   5.178   2.991   0.094 -0.1548 -0.1404 -0.4846
    5CHTO   O71 1772   5.051   3.051   0.131  0.0115 -0.4435  0.8073
    5CHTO  H171 1773   5.020   3.121   0.077 -2.3456 -1.9997  0.0562
    5CHTO   O62 1774   5.134   2.594   0.337  0.0323  0.2893  0.3009
    5CHTO   C91 1775   5.018   2.594   0.428 -0.0772  0.1663 -0.3075
    5CHTO  H178 1776   5.053   2.619   0.528 -0.8532 -1.0344  0.2833
    5CHTO   C92 1777   4.966   2.448   0.458  0.2653  0.5423  0.1905
    5CHTO  H179 1778   5.047   2.391   0.506 -1.1379 -1.6387  0.0497
    5CHTO   O66 1779   4.870   2.458   0.562 -0.2034 -0.7696 -0.2385
    5CHTO  H166 1780   4.793   2.507   0.541  0.3510  0.2831  0.1238
    5CHTO   C93 1781   4.890   2.384   0.329  0.6629 -0.1219  0.6049
    5CHTO  H180 1782   4.810   2.312   0.354 -1.3978  2.5095  1.8216
    5CHTO   N16 1783   4.980   2.301   0.240  0.0321  0.0701 -0.1882
    5CHTO  H172 1784   5.016   2.215   0.295  3.6235  0.8870 -1.1374
    5CHTO  H173 1785   5.068   2.359   0.218  0.2884 -0.1842  0.1498
    5CHTO   C94 1786   4.820   2.506   0.252 -0.7971  0.0882  0.7354
    5CHTO  H181 1787   4.885   2.551   0.176  0.7132  2.5952  3.4410
    5CHTO   O61 1788   4.784   2.613   0.345  0.1397 -0.1203  0.9003
    5CHTO   C95 1789   4.896   2.686   0.389  0.0579  0.0408  0.5923
    5CHTO  H182 1790   4.932   2.743   0.304 -1.9891  1.6518  0.7944
    5CHTO  C106 1791   4.871   2.783   0.509  0.0602 -0.1024 -0.1205
    5CHTO   O69 1792   4.979   2.878   0.512 -0.6975  0.4197  0.0743
    5CHTO  H169 1793   5.055   2.830   0.539 -1.1195 -0.2413  0.0742
    5CHTO   O63 1794   4.702   2.459   0.194  0.2079  0.6091  0.3114
    5CHTO   C96 1795   4.711   2.432   0.031  0.0790 -0.4441  0.3733
    5CHTO  H183 1796   4.810   2.394   0.004 -0.8676 -1.5374 -1.6883
    5CHTO   C98 1797   4.685   2.555  -0.056  0.1686  0.3185  0.2736
    5CHTO  H185 1798   4.589   2.603  -0.031 -0.0942  0.1040 -0.2967
    5CHTO   O67 1799   4.784   2.657  -0.021  0.6753 -0.2211  0.0653
    5CHTO  H167 1800   4.740   2.735   0.009 -0.5224 -1.1838  0.8242
    5CHTO  C102 1801   4.692   2.522  -0.211 -0.1598 -0.2421  0.3526
    5CHTO  H189 1802   4.799   2.512  -0.236  0.4294  1.4695  2.0532
    5CHTO   N18 1803   4.642   2.629  -0.303  0.1580 -0.3225 -0.9862
    5CHTO  H176 1804   4.534   2.625  -0.313 -0.2270  2.1573  1.8591
    5CHTO  H177 1805   4.677   2.587  -0.396 -2.1033 -1.2131 -1.4921
    5CHTO  C105 1806   4.615   2.391  -0.229 -0.0988  1.0179 -0.2408
    5CHTO  H192 1807   4.508   2.412  -0.223 -0.7564 -2.4038  0.9044
    5CHTO   O65 1808   4.638   2.282  -0.128  0.3126  0.0554  0.2682
    5CHTO  C100 1809   4.605   2.323   0.002  0.1536  0.2668  0.0752
    5CHTO  H187 1810   4.505   2.365   0.016 -0.6364 -2.0344  1.7581
    5CHTO  C107 1811   4.618   2.201   0.092  0.2603  0.0258 -1.2725
    5CHTO   O70 1812   4.509   2.113   0.053 -0.5608  0.1073 -0.0239
    5CHTO  H170 1813   4.491   2.055   0.124 -0.4365  0.7809  0.5694
    5CHTO   O57 1814   4.665   2.343  -0.379 -0.5042  0.3161  0.2690
    5CHTO   C85 1815   4.670   2.206  -0.415  0.1659  0.2512  0.0113
    5CHTO  H157 1816   4.608   2.142  -0.349  0.1086  1.4059  1.0814
    5CHTO   C83 1817   4.818   2.152  -0.379  0.3427  0.1815  0.4019
    5CHTO  H155 1818   4.835   2.170  -0.273  0.9086  2.2780 -0.0278
    5CHTO   O56 1819   4.902   2.243  -0.452 -0.3728 -0.3357 -0.0088
    5CHTO  H135 1820   4.884   2.332  -0.428 -0.3400 -0.4406  0.4120
    5CHTO   C81 1821   4.837   2.002  -0.416  0.0613 -0.3957  0.7694
    5CHTO  H153 1822   4.768   1.948  -0.352  0.8215 -2.4550 -0.0919
    5CHTO   N14 1823   4.973   1.957  -0.379 -0.4603 -0.3114 -0.4807
    5CHTO  H141 1824   4.986   1.851  -0.366  0.4798 -0.0134  1.1570
    5CHTO  H142 1825   5.053   1.990  -0.442  0.1482 -2.0609 -0.6648
    5CHTO   C79 1826   4.803   1.980  -0.570  0.4567  0.2933 -0.2251
    5CHTO  H151 1827   4.796   1.872  -0.584 -0.2800  0.2191  0.6556
    5CHTO   O52 1828   4.659   2.034  -0.590 -0.7278  0.3850  0.4550
    5CHTO   C86 1829   4.646   2.174  -0.561  0.4981  0.4960  0.0430
    5CHTO  H158 1830   4.716   2.214  -0.637  1.7245 -3.3003 -0.9319
    5CHTO   C90 1831   4.499   2.222  -0.607 -0.0273 -0.2397  0.2000
    5CHTO   O60 1832   4.405   2.178  -0.510  0.2450  0.8428  0.2017
    5CHTO  H138 1833   4.384   2.258  -0.466 -0.2394 -0.4031  2.3604
    5CHTO   O50 1834   4.894   2.030  -0.663  0.3725 -0.5736  0.5114
    5CHTO   C73 1835   4.945   2.021  -0.802  0.3150 -0.0435  0.2742
    5CHTO  H145 1836   4.860   2.029  -0.870 -0.5502 -0.9854  1.2379
    5CHTO   C74 1837   5.009   1.880  -0.828  0.2320  0.0452  0.9062
    5CHTO  H146 1838   4.933   1.804  -0.807  0.3707 -0.0346  1.1317
    5CHTO   O54 1839   5.038   1.867  -0.967  0.4288  0.0346 -0.3326
    5CHTO  H133 1840   5.107   1.924  -0.995 -1.4137  1.9385 -1.0895
    5CHTO   C75 1841   5.137   1.866  -0.731 -0.9982 -0.2072  0.1259
    5CHTO  H147 1842   5.102   1.858  -0.627 -0.4173  0.0046  0.3391
    5CHTO   N13 1843   5.214   1.739  -0.757 -0.6987  0.5641 -0.0491
    5CHTO  H139 1844   5.289   1.726  -0.680 -0.5374  1.7993  0.0071
    5CHTO  H140 1845   5.144   1.656  -0.750  1.8275 -1.9507 -3.2462
    5CHTO   C76 1846   5.228   1.996  -0.749  0.2653 -0.1627 -0.2336
    5CHTO  H148 1847   5.260   1.986  -0.853  2.2058 -0.7328  0.3857
    5CHTO   O49 1848   5.148   2.112  -0.725  0.4937  0.5840  0.1020
    5CHTO   C77 1849   5.050   2.133  -0.831 -0.3273 -0.2469 -0.1779
    5CHTO  H149 1850   5.082   2.133  -0.935 -1.6906  1.4544 -0.6222
    5CHTO   C88 1851   4.986   2.266  -0.803 -0.1081 -0.0788  0.5532
    5CHTO   O58 1852   4.901   2.328  -0.928  0.0058  0.1935 -0.0992
    5CHTO  H136 1853   4.916   2.421  -0.929  0.2298  0.2119  1.8972
    5CHTO   O51 1854   5.357   1.993  -0.641  0.2194  0.4447  0.8929
    5CHTO   C78 1855   5.457   2.123  -0.638 -0.1699 -0.0199  0.1273
    5CHTO  H150 1856   5.412   2.215  -0.682  1.0514  0.7164  0.4026
    5CHTO   C80 1857   5.594   2.095  -0.705  0.3583  0.3874  0.4496
    5CHTO  H152 1858   5.616   1.988  -0.683 -0.6287 -0.0810 -0.8030
    5CHTO   O55 1859   5.577   2.101  -0.849  0.0826  0.2648  0.5828
    5CHTO  H134 1860   5.561   2.190  -0.872  1.8789  0.5232  0.2706
    5CHTO   C84 1861   5.719   2.190  -0.666 -0.1924  0.2847 -0.6752
    5CHTO  H156 1862   5.707   2.277  -0.731 -1.5863  1.4473  1.0722
    5CHTO   N15 1863   5.851   2.137  -0.698  0.7798 -0.2477 -0.0744
    5CHTO  H143 1864   5.884   2.171  -0.794 -0.6131 -0.9451 -0.8182
    5CHTO  H144 1865   5.847   2.030  -0.693  1.1189 -0.2470  0.2934
    5CHTO   C87 1866   5.706   2.239  -0.517  0.9607 -0.1063 -0.3527
    5CHTO  H159 1867   5.729   2.155  -0.452  0.9949  0.2834  0.1418
    5CHTO   O53 1868   5.563   2.273  -0.491 -0.0639 -0.4767 -0.1484
    5CHTO   C82 1869   5.486   2.151  -0.485 -0.7321 -0.6538  0.4783
    5CHTO  H154 1870   5.535   2.062  -0.445 -0.5207 -0.2893  1.0236
    5CHTO   C89 1871   5.359   2.173  -0.410  0.0908  0.1943 -0.0850
    5CHTO   O59 1872   5.383   2.217  -0.271 -0.4018  0.1726 -0.3159
    5CHTO  H137 1873   5.439   2.153  -0.232 -0.2120  0.4526 -0.1270
    5CHTO   O45 1874   5.784   2.367  -0.490 -0.1896 -0.1577 -0.0648
    5CHTO   C67 1875   5.833   2.379  -0.347  0.2009 -0.0746 -0.0573
    5CHTO  H124 1876   5.788   2.298  -0.289  0.2355 -1.3834 -1.8012
    5CHTO   C65 1877   5.991   2.381  -0.332  0.3069  0.3755  0.2002
    5CHTO  H122 1878   6.022   2.325  -0.421  0.1660  2.7457 -1.3803
    5CHTO   O44 1879   6.027   2.303  -0.211  0.1882 -0.5632 -0.3047
    5CHTO  H102 1880   5.964   2.234  -0.200 -3.9275  3.0574  0.0942
    5CHTO   C63 1881   6.051   2.528  -0.333  0.1202 -0.6710  0.2870
    5CHTO  H120 1882   6.017   2.578  -0.424 -1.5805  0.5890  1.5585
    5CHTO   N11 1883   6.202   2.535  -0.345 -0.2114 -0.0281  0.6771
    5CHTO  H108 1884   6.226   2.560  -0.446  2.9197  0.3931  1.4561
    5CHTO  H109 1885   6.243   2.610  -0.280  0.2373 -0.8942  1.4132
    5CHTO   C61 1886   5.982   2.608  -0.220 -0.0988  0.5117  0.2012
    5CHTO  H118 1887   5.997   2.714  -0.244  3.1339 -0.2098 -1.2246
    5CHTO   O40 1888   5.843   2.585  -0.198 -0.3376 -0.3009  0.5854
    5CHTO   C68 1889   5.770   2.516  -0.297  0.0044  1.4503 -0.0924
    5CHTO  H125 1890   5.754   2.579  -0.387 -1.5413  0.0758 -0.8036
    5CHTO   C72 1891   5.626   2.495  -0.240  0.1738 -0.1396 -0.8105
    5CHTO   O48 1892   5.626   2.419  -0.114 -0.2950 -0.1586 -0.1804
    5CHTO  H105 1893   5.676   2.468  -0.051 -1.7534 -1.0419  1.6945
    5CHTO   O38 1894   6.032   2.579  -0.094 -0.1587  0.4570 -0.4412
    5CHTO   C55 1895   5.995   2.656   0.024  0.1219 -0.2018 -0.2502
    5CHTO  H112 1896   5.891   2.691   0.017 -0.1352 -0.6564  1.2200
    5CHTO   C56 1897   6.090   2.778   0.036  0.5761 -0.3096 -0.5531
    5CHTO  H113 1898   6.189   2.730   0.031  0.4593 -0.7513  1.1506
    5CHTO   O42 1899   6.073   2.871  -0.072  0.0495 -0.1432 -0.1998
    5CHTO  H100 1900   6.026   2.834  -0.143  2.8118 -2.1344 -1.0901
    5CHTO   C57 1901   6.074   2.860   0.175  0.0824  0.5257 -0.1378
    5CHTO  H114 1902   5.970   2.893   0.175  0.4002  1.5388  1.0365
    5CHTO   N10 1903   6.160   2.987   0.190 -0.5913  0.1806  0.0615
    5CHTO  H106 1904   6.098   3.074   0.176 -1.0146  0.1627  1.7798
    5CHTO  H107 1905   6.236   2.985   0.114 -1.4051 -0.4367 -0.7620
    5CHTO   C58 1906   6.082   2.760   0.288  0.0576 -0.3547 -0.0424
    5CHTO  H115 1907   6.184   2.719   0.299 -0.3979 -1.1500  1.2901
    5CHTO   O37 1908   5.990   2.647   0.269  0.8599 -0.2846  0.7465
    5CHTO   C59 1909   5.996   2.564   0.154  0.1167 -0.2331  0.3564
    5CHTO  H116 1910   6.079   2.495   0.169 -0.2069 -0.8469 -0.6114
    5CHTO   C70 1911   5.863   2.485   0.162  0.0482 -0.0092 -0.2237
    5CHTO   O46 1912   5.853   2.391   0.062 -0.2765 -0.6842  0.5562
    5CHTO  H103 1913   5.764   2.361   0.057 -0.3083 -0.6334  0.8073
    5CHTO   O39 1914   6.036   2.848   0.426 -0.4014  0.1915  0.2900
    5CHTO   C60 1915   5.901   2.836   0.475 -0.0419  0.4688  0.2760
    5CHTO  H117 1916   5.838   2.801   0.393  1.6693 -1.0892 -0.4154
    5CHTO   C62 1917   5.887   2.731   0.589 -0.3565  0.2106  0.3490
    5CHTO  H119 1918   5.930   2.636   0.553  1.5570  0.6713  1.3589
    5CHTO   O43 1919   5.970   2.767   0.696 -0.7011 -0.3685 -0.4047
    5CHTO  H101 1920   5.945   2.717   0.771 -1.7214 -0.3486 -0.7304
    5CHTO   C66 1921   5.738   2.717   0.621  0.5658  0.1446  0.1518
    5CHTO  H123 1922   5.687   2.668   0.538  0.2284 -2.2206  1.7201
    5CHTO   N12 1923   5.725   2.618   0.730  0.4582 -0.2029  0.1495
    5CHTO  H110 1924   5.620   2.600   0.748 -0.0064  2.1492 -0.0967
    5CHTO  H111 1925   5.778   2.648   0.818  1.4606 -2.6256  0.4004
    5CHTO   C69 1926   5.674   2.851   0.659 -0.4159 -0.6073  0.5382
    5CHTO  H126 1927   5.693   2.887   0.762 -4.3381  0.4851  0.9646
    5CHTO   O41 1928   5.719   2.961   0.554  0.0619  0.5595 -0.4991
    5CHTO   C64 1929   5.848   2.972   0.523 -0.2722 -0.2343  0.2620
    5CHTO  H121 1930   5.905   3.005   0.612 -0.5506 -1.3010  0.8385
    5CHTO   C71 1931   5.854   3.085   0.412 -0.7992 -0.2128 -0.3059
    5CHTO   O47 1932   5.824   3.202   0.473 -0.2621 -0.2172 -0.4715
    5CHTO  H104 1933   5.775   3.262   0.420 -0.2489  0.5962  0.4325
    5CHTO   O34 1934   5.533   2.852   0.664 -0.2643  0.3324 -0.1056
    5CHTO   C49 1935   5.435   2.936   0.760 -0.4370 -0.3651  0.2545
    5CHTO   H91 1936   5.487   3.024   0.797 -0.6748 -0.3404  0.5250
    5CHTO   C47 1937   5.407   2.838   0.877 -0.5646  0.4771 -0.7143
    5CHTO   H89 1938   5.351   2.883   0.962 -1.3501 -2.8150  0.6106
    5CHTO   O33 1939   5.537   2.803   0.933  0.1153 -0.1507  0.0630
    5CHTO   H70 1940   5.574   2.730   0.887 -0.7804 -0.1420 -0.6879
    5CHTO   C45 1941   5.316   2.720   0.815 -0.5893  0.4127  0.2339
    5CHTO   H87 1942   5.358   2.675   0.724  0.2044 -3.9414  2.5901
    5CHTO    N8 1943   5.301   2.611   0.913 -0.5564  0.6046  0.6543
    5CHTO   H75 1944   5.394   2.569   0.947  1.4993  3.1503 -1.6662
    5CHTO   H76 1945   5.239   2.534   0.869 -0.1955  1.7341 -1.9019
    5CHTO   C43 1946   5.178   2.796   0.769  0.2250 -0.0296  0.2614
    5CHTO   H85 1947   5.118   2.713   0.733 -0.0777  0.3809 -0.1883
    5CHTO   O29 1948   5.205   2.889   0.668 -0.8312  0.1649 -0.4902
    5CHTO   C50 1949   5.308   2.990   0.687  0.0766  0.3311 -0.0872
    5CHTO   H92 1950   5.357   3.022   0.594  0.9767 -0.9299 -0.0552
    5CHTO   C54 1951   5.249   3.123   0.741 -0.3481 -0.5727 -0.2679
    5CHTO   O36 1952   5.206   3.207   0.634  0.3531 -0.0457  0.2598
    5CHTO   H72 1953   5.161   3.286   0.656  0.3037  0.4970 -1.6676
    5CHTO   O27 1954   5.103   2.854   0.874  0.0122 -0.1698  0.2946
    5CHTO   C37 1955   5.015   2.825   0.984  0.5922 -0.4346  0.0354
    5CHTO   H79 1956   5.053   2.744   1.049  2.0388 -0.0012 -0.2474
    5CHTO   C38 1957   5.006   2.959   1.063 -0.3303 -0.9422  0.1425
    5CHTO   H80 1958   4.990   3.041   0.991 -0.5277 -0.5147  0.6668
    5CHTO   O31 1959   5.141   2.976   1.127 -0.1096  0.5744 -0.1805
    5CHTO   H68 1960   5.195   2.907   1.093 -1.3071 -1.4188  1.8261
    5CHTO   C39 1961   4.884   2.960   1.163  0.0033 -0.2275 -0.1224
    5CHTO   H81 1962   4.903   2.877   1.232  1.0066 -0.8850 -1.1663
    5CHTO    N7 1963   4.866   3.087   1.252 -0.2729 -0.2005  0.4912
    5CHTO   H73 1964   4.926   3.169   1.218  1.3272 -2.3749 -2.1455
    5CHTO   H74 1965   4.880   3.050   1.353 -2.1746  0.4089  1.0011
    5CHTO   C40 1966   4.751   2.929   1.077 -0.2758 -0.0083 -0.0130
    5CHTO   H82 1967   4.730   3.010   1.007  1.0982 -1.3772 -2.0639
    5CHTO   O26 1968   4.771   2.805   1.012 -0.0717 -0.9742 -0.6569
    5CHTO   C41 1969   4.882   2.783   0.921  0.5188  0.2042 -0.3062
    5CHTO   H83 1970   4.862   2.836   0.827  0.3580  3.1128  1.3264
    5CHTO   C52 1971   4.877   2.631   0.878 -0.1575 -0.8452  0.1585
    5CHTO   O35 1972   4.852   2.548   0.984 -1.0021 -0.3162  0.1968
    5CHTO   H71 1973   4.829   2.463   0.952 -0.8048 -0.5428  0.6395
    5CHTO   O28 1974   4.629   2.911   1.148  0.0793  0.3619 -0.7905
    5CHTO   C42 1975   4.581   2.792   1.225 -0.4374  0.3962 -0.2179
    5CHTO   H84 1976   4.486   2.817   1.272 -0.3454 -0.6750  0.5452
    5CHTO   C44 1977   4.670   2.749   1.343  0.4783  0.4319  0.7626
    5CHTO   H86 1978   4.771   2.728   1.309  0.6085  1.7606  0.3055
    5CHTO   O32 1979   4.681   2.863   1.430  0.4602 -0.4351 -0.1432
    5CHTO   H69 1980   4.608   2.875   1.488  1.0518  0.0466  0.5064
    5CHTO   C48 1981   4.617   2.616   1.417 -0.4421 -0.1941  0.2221
    5CHTO   H90 1982   4.522   2.641   1.464  0.8815  0.8914  2.4045
    5CHTO    N9 1983   4.698   2.559   1.524  0.0719  0.2793  0.3257
    5CHTO   H77 1984   4.643   2.477   1.569 -1.2792  0.4564 -0.9858
    5CHTO   H78 1985   4.712   2.639   1.596  0.3051 -0.5105  1.1744
    5CHTO   C51 1986   4.602   2.506   1.300 -0.4829 -0.1601  0.4301
    5CHTO   H93 1987   4.697   2.497   1.248 -0.3467 -3.0974  1.0512
    5CHTO   O30 1988   4.497   2.560   1.219 -0.3012  0.4488  0.3267
    5CHTO   C46 1989   4.549   2.667   1.136 -0.2291 -0.2124  0.3111
    5CHTO   H88 1990   4.641   2.628   1.091  0.2448  0.1517  0.9517
    5CHTO   C53 1991   4.449   2.707   1.019 -1.0412 -0.6257  0.2106
    5CHTO   O72 1992   4.422   2.588   0.937 -0.0030  0.3484 -0.1893
    5CHTO  H199 1993   4.348   2.602   0.882  0.4544  0.0268 -0.8989
    5CHTO   O22 1994   4.560   2.368   1.337 -0.1397 -0.1670  0.3272
    5CHTO   C31 1995   4.605   2.258   1.246 -0.0083 -0.3762  0.9196
    5CHTO   H59 1996   4.543   2.171   1.274  0.2714 -0.8173  0.1866
    5CHTO   C29 1997   4.587   2.287   1.092  0.6341 -0.0553 -1.3101
    5CHTO   H57 1998   4.627   2.383   1.057 -1.0775  1.2948  0.3451
    5CHTO   O21 1999   4.447   2.284   1.059  0.1174  0.3301  0.0126
    5CHTO   H37 2000   4.421   2.373   1.044  1.5060  0.9289  1.0793
    5CHTO   C27 2001   4.658   2.169   1.007  0.4474  0.0638 -0.3991
    5CHTO   H55 2002   4.601   2.076   1.024 -2.8297  2.2973  1.7181
    5CHTO    N5 2003   4.660   2.204   0.863  0.0594  0.6004 -0.3647
    5CHTO   H43 2004   4.561   2.226   0.828 -0.2109  1.5674  0.9722
    5CHTO   H44 2005   4.735   2.277   0.833 -1.3612  2.9028  1.4782
    5CHTO   C25 2006   4.804   2.149   1.070 -0.1124  0.7536 -0.7985
    5CHTO   H53 2007   4.861   2.243   1.062  1.3939  0.0275  0.8766
    5CHTO   O17 2008   4.793   2.110   1.211  0.0255 -0.6383 -0.2165
    5CHTO   C32 2009   4.746   2.221   1.288 -0.5751 -0.2819 -0.4632
    5CHTO   H60 2010   4.807   2.308   1.264 -0.6189 -0.3464 -0.8166
    5CHTO   C36 2011   4.758   2.187   1.440 -0.2007  0.0212 -0.2594
    5CHTO   O25 2012   4.885   2.140   1.486 -0.5328  0.5425 -0.7772
    5CHTO   H40 2013   4.919   2.081   1.422 -0.8086 -1.3437  0.7611
    5CHTO   O15 2014   4.895   2.043   0.989  0.0281 -0.2582 -1.1508
    5CHTO   C19 2015   5.039   2.028   1.014  0.2493  0.4736 -0.4677
    5CHTO   H47 2016   5.067   2.106   1.087  0.2310 -0.3441  0.4214
    5CHTO   C20 2017   5.059   1.890   1.080 -0.2243 -0.4823  0.3208
    5CHTO   H48 2018   5.044   1.808   1.009  1.7654 -1.5465  1.0906
    5CHTO   O19 2019   4.965   1.880   1.192 -0.2420  0.4327 -0.1486
    5CHTO   H35 2020   4.965   1.789   1.214 -2.0679  0.4717  0.0613
    5CHTO   C21 2021   5.212   1.873   1.125  0.5831 -0.1148  0.0558
    5CHTO   H49 2022   5.235   1.957   1.190 -1.4448  0.2885  0.2931
    5CHTO    N4 2023   5.237   1.743   1.194  0.1727 -0.3204  0.1577
    5CHTO   H41 2024   5.329   1.733   1.249  0.4519 -0.0648 -0.2588
    5CHTO   H42 2025   5.233   1.659   1.126  2.8895 -0.5880  0.2751
    5CHTO   C22 2026   5.307   1.905   1.007 -0.1112 -0.7235  0.0385
    5CHTO   H50 2027   5.311   1.822   0.937  0.4532 -0.5432 -0.1454
    5CHTO   O14 2028   5.266   2.020   0.932  0.4112  0.0580  0.5776
    5CHTO   C23 2029   5.133   2.039   0.891  0.2057 -0.3932  0.7016
    5CHTO   H51 2030   5.112   1.960   0.818 -1.1483 -2.6471  3.4359
    5CHTO   C34 2031   5.116   2.178   0.821  0.3213 -0.3599 -0.4857
    5CHTO   O23 2032   4.986   2.193   0.760  0.3487  0.2238  0.7062
    5CHTO   H38 2033   4.981   2.154   0.675  1.8926  1.8096 -0.1503
    5CHTO   O16 2034   5.437   1.943   1.066  0.3020  0.0706  0.2960
    5CHTO   C24 2035   5.546   1.974   0.989 -0.4071  0.5123 -0.4052
    5CHTO   H52 2036   5.522   1.990   0.884  2.2960 -1.1142 -1.3186
    5CHTO   C26 2037   5.639   1.850   1.004 -0.5727  0.0707  0.4520
    5CHTO   H54 2038   5.668   1.842   1.111 -3.8049 -1.4758  1.2795
    5CHTO   O20 2039   5.572   1.728   0.967  0.4133  0.1987  0.0500
    5CHTO   H36 2040   5.628   1.652   0.962  0.9549  0.5574  0.6738
    5CHTO   C30 2041   5.773   1.877   0.926  0.7196 -0.9019 -0.6340
    5CHTO   H58 2042   5.736   1.898   0.825  0.3892 -1.4769 -0.6330
    5CHTO    N6 2043   5.867   1.763   0.930  0.4385 -0.2415 -0.2549
    5CHTO   H45 2044   5.821   1.668   0.907 -0.9227  0.1712  0.6961
    5CHTO   H46 2045   5.908   1.757   1.029 -1.8906 -0.4372  0.7325
    5CHTO   C33 2046   5.832   2.012   0.978  0.5701  0.6230  0.1228
    5CHTO   H61 2047   5.856   1.996   1.084  1.3504  1.9387  0.1508
    5CHTO   O18 2048   5.736   2.121   0.973 -0.5285 -0.4927 -0.2817
    5CHTO   C28 2049   5.612   2.098   1.044 -0.9391 -0.5447 -0.2673
    5CHTO   H56 2050   5.638   2.083   1.148  1.3673  0.1762 -0.7229
    5CHTO   C35 2051   5.510   2.216   1.030 -0.1544  0.5984  0.1284
    5CHTO   O24 2052   5.566   2.344   1.036 -0.1422  0.4338 -0.0236
    5CHTO   H39 2053   5.507   2.404   0.994  0.0449  0.7573  0.1764
    5CHTO    O9 2054   5.955   2.045   0.910 -0.5552 -0.1129  0.1137
    5CHTO   C13 2055   5.929   2.082   0.732 -0.5386 -0.5665  0.4336
    5CHTO   H26 2056   5.834   2.030   0.707 -1.4969  1.5230 -0.3614
    5CHTO   C11 2057   6.046   2.016   0.655  0.1417  0.2439 -0.2127
    5CHTO   H24 2058   6.038   1.907   0.666 -1.5574  0.2808 -0.9771
    5CHTO    O8 2059   6.170   2.060   0.720  0.4681 -0.6682 -0.0562
    5CHTO    H3 2060   6.177   2.150   0.693  0.4926 -0.6507  0.0069
    5CHTO    C9 2061   6.048   2.053   0.507 -0.4658  0.1203  0.7314
    5CHTO   H22 2062   5.954   2.010   0.469 -0.7529  2.2412 -1.0264
    5CHTO    N2 2063   6.154   1.978   0.436 -0.1055  0.2281  0.2701
    5CHTO   H10 2064   6.128   1.956   0.334 -2.1975 -2.1675  1.2539
    5CHTO   H11 2065   6.254   2.017   0.443  0.9706 -2.7509  2.7582
    5CHTO    C7 2066   6.056   2.211   0.492 -0.2221 -0.0262  0.2400
    5CHTO   H20 2067   6.013   2.219   0.390 -2.0027 -1.5289  0.8382
    5CHTO    O4 2068   5.966   2.285   0.578  0.6373  0.6458 -0.2169
    5CHTO   C14 2069   5.914   2.238   0.699 -0.0942  0.3986 -0.1005
    5CHTO   H27 2070   5.809   2.272   0.691  0.3513  1.5788 -1.0347
    5CHTO   C18 2071   5.979   2.327   0.809  0.7633 -0.3847  0.0437
    5CHTO   O13 2072   5.908   2.339   0.928  0.2734  0.0331 -0.3915
    5CHTO    H7 2073   5.925   2.425   0.963 -1.0042 -0.1927  0.8380
    5CHTO    O2 2074   6.212   2.279   0.505  0.2048 -0.0716  0.0196
    5CHTO    C1 2075   6.242   2.376   0.406 -0.0152 -0.9438 -0.6376
    5CHTO   H14 2076   6.146   2.431   0.399  0.1313 -0.6189 -0.0235
    5CHTO    C2 2077   6.280   2.327   0.264  0.0899 -0.1035  0.0255
    5CHTO   H15 2078   6.369   2.267   0.286 -1.0110 -0.8095  2.8882
    5CHTO    O6 2079   6.168   2.256   0.204 -0.1526  0.2979  0.0945
    5CHTO    H1 2080   6.185   2.168   0.175 -2.2492  0.3240 -1.3129
    5CHTO    C3 2081   6.333   2.457   0.177  0.3166 -0.0246 -0.1749
    5CHTO   H16 2082   6.271   2.545   0.156  1.5496  1.0051  0.4287
    5CHTO    N1 2083   6.386   2.412   0.046  0.1675 -0.6714  0.6951
    5CHTO    H8 2084   6.416   2.492  -0.020 -0.1299 -1.6786 -0.6659
    5CHTO    H9 2085   6.325   2.343  -0.010  1.1759 -1.5424  0.6459
    5CHTO    C4 2086   6.451   2.517   0.258 -0.2903 -0.1972 -0.4635
    5CHTO   H17 2087   6.523   2.440   0.286 -0.0432  0.5484  0.9902
    5CHTO    O1 2088   6.400   2.569   0.379 -0.3273 -0.3190  0.4994
    5CHTO    C5 2089   6.357   2.467   0.463 -0.4837 -0.4056 -0.3222
    5CHTO   H18 2090   6.439   2.400   0.486 -1.2510 -1.0742  0.4935
    5CHTO   C16 2091   6.304   2.542   0.591  0.5024 -0.4414 -0.7612
    5CHTO   O11 2092   6.183   2.622   0.578  0.3560  0.7380  0.2048
    5CHTO    H5 2093   6.173   2.632   0.485  0.3363 -2.2663 -0.1551
    5CHTO    O3 2094   6.507   2.640   0.200  0.0767 -0.1718  0.0265
    5CHTO    C6 2095   6.652   2.646   0.231 -0.2892 -0.1222 -0.5387
    5CHTO   H19 2096   6.674   2.590   0.322  0.3199  2.4000  0.9161
    5CHTO    C8 2097   6.738   2.598   0.104  0.1150 -0.2057  0.0969
    5CHTO   H21 2098   6.704   2.649   0.014 -0.0816  1.6636  1.1921
    5CHTO    O7 2099   6.716   2.458   0.088  0.1939  0.0401 -0.1095
    5CHTO    H2 2100   6.642   2.426   0.136  1.7083 -1.2361  1.4777
    5CHTO   C12 2101   6.888   2.613   0.133  0.2150 -0.6571 -0.2528
    5CHTO   H25 2102   6.920   2.554   0.221  2.4416 -0.3870 -0.8428
    5CHTO    N3 2103   6.971   2.565   0.019 -0.6744  0.6909  0.0082
    5CHTO   H12 2104   7.075   2.571   0.050 -1.4375 -0.9063  3.0737
    5CHTO   H13 2105   6.948   2.624  -0.069 -0.9207  0.5380 -0.0300
    5CHTO   C15 2106   6.912   2.764   0.168  0.3709 -0.3178  0.1002
    5CHTO   H28 2107   6.888   2.817   0.075  1.7361 -1.6939 -1.0659
    5CHTO   O10 2108   7.060   2.793   0.216  0.4619  0.2197 -0.1778
    5CHTO    H4 2109   7.103   2.845   0.151 -1.8806  1.0188 -1.1576
    5CHTO    O5 2110   6.836   2.810   0.282  0.5774  0.2282  0.3300
    5CHTO   C10 2111   6.692   2.790   0.262  0.0476  0.3231 -0.6003
    5CHTO   H23 2112   6.665   2.854   0.178 -1.9703  0.2085 -0.0856
    5CHTO   C17 2113   6.612   2.833   0.388 -0.5008 -0.5244  0.2449
    5CHTO   O12 2114   6.637   2.740   0.495  0.2670  0.5618  0.2101
    5CHTO    H6 2115   6.558   2.693   0.477  0.2331  1.1425 -1.2470
    6CHTO  H203 2116   3.856   4.189   0.729  0.9277  0.2526  1.3418
    6CHTO   O82 2117   3.854   4.272   0.771 -0.5644  0.8334  0.1776
    6CHTO  C123 2118   3.981   4.340   0.767 -0.4075  0.8056  0.0541
    6CHTO  H227 2119   4.007   4.365   0.663 -1.1584 -0.8775 -0.5640
    6CHTO   O77 2120   3.953   4.449   0.852  0.0909  0.0292  0.2961
    6CHTO  C118 2121   4.063   4.530   0.883  0.0176 -0.3654 -0.5776
    6CHTO  H222 2122   4.110   4.573   0.793  0.5448  1.2960  0.4797
    6CHTO  C125 2123   4.010   4.646   0.965  0.1237 -0.5997 -0.0551
    6CHTO   O84 2124   3.926   4.739   0.895 -0.3279  0.2286  0.2472
    6CHTO  H205 2125   3.841   4.705   0.872 -1.2524  0.9592  2.3938
    6CHTO  C114 2126   4.179   4.456   0.958  1.2082 -0.2514 -0.6914
    6CHTO  H218 2127   4.141   4.421   1.053 -1.2119  0.0477 -1.5021
    6CHTO  C116 2128   4.224   4.338   0.867 -0.7937 -0.6989  0.4583
    6CHTO  H220 2129   4.278   4.370   0.775 -0.2104  0.7790  1.2914
    6CHTO   O79 2130   4.324   4.260   0.938 -0.8811 -0.1298  0.4891
    6CHTO  H201 2131   4.409   4.278   0.904 -0.6811  0.7115  1.3976
    6CHTO  C120 2132   4.102   4.251   0.824  0.4013  1.1121 -0.6595
    6CHTO  H224 2133   4.071   4.204   0.920 -1.9128  3.5516 -0.1760
    6CHTO   N21 2134   4.138   4.145   0.727  0.1144  0.0152 -0.2544
    6CHTO  H211 2135   4.245   4.142   0.728  0.0683 -1.4303  1.9729
    6CHTO  H212 2136   4.095   4.053   0.766 -0.2274  0.4072  0.2912
    6CHTO   O75 2137   4.281   4.554   0.984 -0.4049  0.1685  0.1558
    6CHTO  C112 2138   4.370   4.518   1.130  0.9501 -0.2104 -0.0478
    6CHTO  H216 2139   4.385   4.409   1.127  1.0487 -0.1699 -1.0781
    6CHTO   O73 2140   4.286   4.554   1.239  0.2339  0.0779  0.4582
    6CHTO  C113 2141   4.346   4.555   1.372  0.1212  0.6286  0.0072
    6CHTO  H217 2142   4.375   4.452   1.402 -0.6233  0.1742 -0.7948
    6CHTO  C124 2143   4.236   4.608   1.462  0.5062 -0.3357 -0.0032
    6CHTO   O83 2144   4.250   4.566   1.598  0.4697  0.0970  0.4824
    6CHTO  H204 2145   4.281   4.477   1.603 -0.2072 -0.0571  2.2668
    6CHTO  C109 2146   4.478   4.637   1.371  0.2583  0.2432  0.1903
    6CHTO  H213 2147   4.456   4.743   1.352  0.3969  0.5077  1.4698
    6CHTO  C110 2148   4.576   4.573   1.269 -0.1133 -0.1722 -0.1149
    6CHTO  H214 2149   4.592   4.466   1.284 -0.8780 -0.5191 -1.6662
    6CHTO   O78 2150   4.703   4.644   1.275 -0.6367  0.2064  0.0331
    6CHTO  H200 2151   4.745   4.612   1.353  0.1248  1.8169  0.2888
    6CHTO  C111 2152   4.505   4.595   1.131  0.1249  0.3955  0.1281
    6CHTO  H215 2153   4.477   4.701   1.123  0.8331  0.8187  2.7864
    6CHTO   N19 2154   4.582   4.560   1.012 -0.4509 -0.4796 -0.0631
    6CHTO  H207 2155   4.536   4.594   0.920 -3.2250 -0.2919  1.3262
    6CHTO  H208 2156   4.589   4.452   1.008 -4.0964 -0.7420 -0.8617
    6CHTO   O74 2157   4.530   4.619   1.508 -0.2631 -0.7009 -0.1187
    6CHTO  C115 2158   4.653   4.708   1.557 -0.0086 -0.1481  0.4702
    6CHTO  H219 2159   4.692   4.774   1.481 -0.0913  1.3455  1.7099
    6CHTO   O76 2160   4.620   4.778   1.666 -0.2660 -0.2821  0.5103
    6CHTO  C122 2161   4.565   4.714   1.778  0.7253  0.2469  0.4523
    6CHTO  H226 2162   4.461   4.690   1.757  0.7828 -0.9299  1.4814
    6CHTO  C126 2163   4.567   4.824   1.900  0.2730  0.3575  0.0848
    6CHTO   O85 2164   4.500   4.773   2.013  0.4823  0.4968  0.0752
    6CHTO  H206 2165   4.521   4.825   2.088 -0.0298  0.5466  0.1891
    6CHTO  C121 2166   4.642   4.578   1.811  0.6651 -0.8760 -0.0751
    6CHTO  H225 2167   4.662   4.568   1.920  0.8002 -0.3916 -0.0579
    6CHTO   O81 2168   4.560   4.465   1.784  0.2512 -0.1586  0.1851
    6CHTO  H202 2169   4.486   4.455   1.840 -1.5319  2.5671 -1.5880
    6CHTO  C119 2170   4.776   4.580   1.742  0.3502  0.1217 -0.1044
    6CHTO  H223 2171   4.827   4.663   1.790  1.0148 -0.0607 -0.4887
    6CHTO  C117 2172   4.767   4.602   1.590 -0.6234 -0.2417  0.2521
    6CHTO  H221 2173   4.746   4.505   1.545  0.6396 -1.2191  1.7147
    6CHTO   N20 2174   4.907   4.638   1.534 -0.4894 -0.0286 -0.1315
    6CHTO  H209 2175   4.981   4.567   1.568 -0.7181 -0.0329  0.3509
    6CHTO  H210 2176   4.915   4.650   1.427 -0.2555 -0.7537 -0.2015
    6CHTO   O80 2177   4.865   4.448   1.789  0.3853  0.2110  0.1977
    6CHTO  C103 2178   4.959   4.457   1.929  0.4187 -0.5363  0.0106
    6CHTO  H190 2179   5.040   4.384   1.926  1.7201  0.8631 -0.1378
    6CHTO  C101 2180   5.025   4.587   1.962 -0.1159 -0.2207 -0.6260
    6CHTO  H188 2181   4.954   4.670   1.953 -0.2315 -0.2868 -0.3352
    6CHTO   O68 2182   5.159   4.623   1.846  0.2812  0.4595  0.1707
    6CHTO  H168 2183   5.230   4.566   1.865 -0.8809 -0.5391  1.6310
    6CHTO   C99 2184   5.086   4.580   2.110 -0.3901  0.1427  0.0805
    6CHTO  H186 2185   5.166   4.503   2.110  1.3036  1.8793 -0.0504
    6CHTO   N17 2186   5.163   4.705   2.146  0.7154 -0.7011  0.0937
    6CHTO  H174 2187   5.260   4.701   2.099  1.2006 -0.4341  1.0789
    6CHTO  H175 2188   5.177   4.694   2.252 -0.9173 -1.4567  0.2501
    6CHTO   C97 2189   4.976   4.533   2.207 -0.1810  0.3178  0.3549
    6CHTO  H184 2190   4.894   4.606   2.197 -0.3926  0.3289  2.1489
    6CHTO   O64 2191   4.939   4.403   2.166  0.3151 -0.0862 -0.1020
    6CHTO  C104 2192   4.861   4.417   2.043 -0.2334 -0.3647  0.4525
    6CHTO  H191 2193   4.779   4.489   2.045 -0.0390 -0.1435  0.4188
    6CHTO  C108 2194   4.789   4.281   2.005 -0.4438  0.0169 -0.1054
    6CHTO   O71 2195   4.752   4.212   2.123 -0.1578 -0.1844  0.3449
    6CHTO  H171 2196   4.754   4.121   2.097  0.8365  0.2226 -1.0541
    6CHTO   O62 2197   5.009   4.494   2.342 -0.1886 -0.0411  0.4958
    6CHTO   C91 2198   4.971   4.594   2.440 -0.7399  0.1476  0.1386
    6CHTO  H178 2199   5.036   4.678   2.415 -0.9969  0.2004 -0.3510
    6CHTO   C92 2200   5.026   4.551   2.580 -0.5328  0.4468 -0.3358
    6CHTO  H179 2201   5.129   4.516   2.564 -0.4972  0.1228  0.5549
    6CHTO   O66 2202   5.030   4.659   2.676 -0.0043  0.7814 -0.0448
    6CHTO  H166 2203   5.110   4.707   2.670  0.4834  0.0700  0.6791
    6CHTO   C93 2204   4.936   4.430   2.639  0.2508 -0.6090  0.2675
    6CHTO  H180 2205   4.942   4.433   2.749  1.7397 -0.1471  0.1876
    6CHTO   N16 2206   4.990   4.296   2.612 -0.3152 -0.0453 -0.3499
    6CHTO  H172 2207   4.918   4.216   2.616 -0.8480  0.4132 -0.8459
    6CHTO  H173 2208   5.050   4.295   2.522  0.6547  0.4317  0.2847
    6CHTO   C94 2209   4.789   4.442   2.588  0.6164 -0.6047  0.0794
    6CHTO  H181 2210   4.780   4.391   2.492  2.1367 -0.6969 -0.0219
    6CHTO   O61 2211   4.761   4.579   2.567 -0.1508 -0.5636  0.3605
    6CHTO   C95 2212   4.819   4.640   2.445  0.4924  0.5698 -0.1994
    6CHTO  H182 2213   4.769   4.599   2.357  0.3296  0.4643 -0.0578
    6CHTO  C106 2214   4.809   4.805   2.449  0.0866 -0.0213 -0.4751
    6CHTO   O69 2215   4.671   4.844   2.421 -0.2145 -0.0106  0.2246
    6CHTO  H169 2216   4.635   4.788   2.355 -0.1059 -0.0245  0.1777
    6CHTO   O63 2217   4.669   4.387   2.688  0.0410  0.7346  0.1447
    6CHTO   C96 2218   4.554   4.352   2.612 -0.5859 -0.2867 -0.4658
    6CHTO  H183 2219   4.562   4.369   2.505  0.7155  0.5375 -0.2429
    6CHTO   C98 2220   4.435   4.427   2.662 -0.0066  0.1928  0.0778
    6CHTO  H185 2221   4.429   4.426   2.772  0.3274 -0.5771  0.0920
    6CHTO   O67 2222   4.463   4.566   2.631 -0.0717  0.2099 -0.4827
    6CHTO  H167 2223   4.452   4.590   2.541 -0.6016 -1.3175 -0.8450
    6CHTO  C102 2224   4.297   4.386   2.590  0.2740  0.6459 -0.0892
    6CHTO  H189 2225   4.307   4.433   2.491 -0.2489 -0.6982 -0.7908
    6CHTO   N18 2226   4.171   4.452   2.636 -0.3472 -0.4698  0.1754
    6CHTO  H176 2227   4.143   4.437   2.739  3.3312 -4.2178  0.7524
    6CHTO  H177 2228   4.086   4.428   2.574 -0.0049  0.6901 -0.7487
    6CHTO  C105 2229   4.293   4.227   2.571  0.4735  0.7148 -0.2388
    6CHTO  H192 2230   4.197   4.184   2.601  0.9364 -1.2445 -1.4965
    6CHTO   O65 2231   4.397   4.156   2.645  0.2763  0.4980  0.0296
    6CHTO  C100 2232   4.536   4.187   2.620 -0.1188  0.7767  0.2697
    6CHTO  H187 2233   4.585   4.150   2.711 -0.6591 -1.3501 -0.2862
    6CHTO  C107 2234   4.592   4.108   2.503 -0.5856  0.3555  0.4383
    6CHTO   O70 2235   4.724   4.142   2.446  0.6941 -0.4513  0.1812
    6CHTO  H170 2236   4.746   4.130   2.356 -0.8548  2.1245 -0.5928
    6CHTO   O57 2237   4.307   4.208   2.404  0.0298 -0.2690  0.3863
    6CHTO   C85 2238   4.206   4.232   2.305  0.0270 -0.5458  0.4596
    6CHTO  H157 2239   4.167   4.324   2.355 -0.5309 -1.3069  1.4435
    6CHTO   C83 2240   4.096   4.124   2.302  0.4677  0.1512 -1.0898
    6CHTO  H155 2241   4.057   4.121   2.404  2.7307 -1.7333 -0.2341
    6CHTO   O56 2242   4.159   3.996   2.290 -0.6687 -0.4527  0.0737
    6CHTO  H135 2243   4.240   3.983   2.335 -0.0115 -0.6641 -1.1407
    6CHTO   C81 2244   3.982   4.154   2.204  0.2973  0.1678 -0.1028
    6CHTO  H153 2245   3.932   4.246   2.234 -0.6524 -0.8354  1.4789
    6CHTO   N14 2246   3.875   4.059   2.217  0.3036  0.4545 -0.1836
    6CHTO  H141 2247   3.773   4.093   2.222  0.2288  0.3689 -1.0489
    6CHTO  H142 2248   3.892   3.987   2.294 -2.9318 -1.8286 -1.4708
    6CHTO   C79 2249   4.042   4.172   2.062 -0.2887 -0.3238 -0.5037
    6CHTO  H151 2250   3.965   4.218   2.000  1.0907  2.0151 -0.5214
    6CHTO   O52 2251   4.141   4.274   2.060  0.7622  0.0784  0.8655
    6CHTO   C86 2252   4.253   4.259   2.153 -0.2100  0.5237  0.4769
    6CHTO  H158 2253   4.308   4.173   2.109  1.8983  1.3072  1.4711
    6CHTO   C90 2254   4.353   4.383   2.144 -0.3686 -0.4412 -0.2104
    6CHTO   O60 2255   4.445   4.376   2.042 -0.1407  0.5576  0.3183
    6CHTO  H138 2256   4.533   4.375   2.076  0.7081 -0.4140 -1.7979
    6CHTO   O50 2257   4.111   4.053   2.015  0.0008  0.2800  0.4209
    6CHTO   C73 2258   4.085   3.976   1.899 -0.0397 -0.4786  0.6113
    6CHTO  H145 2259   3.976   3.977   1.886  0.1883  1.2023 -1.6027
    6CHTO   C74 2260   4.146   3.837   1.919  0.4273 -0.1055  0.2249
    6CHTO  H146 2261   4.095   3.814   2.014 -1.0603 -2.2545 -1.0528
    6CHTO   O54 2262   4.097   3.747   1.821  0.0359  0.1510  0.6434
    6CHTO  H133 2263   4.148   3.746   1.742 -0.2385 -1.1449  0.4723
    6CHTO   C75 2264   4.304   3.851   1.935 -0.2510 -0.0131 -0.4247
    6CHTO  H147 2265   4.324   3.913   2.023 -2.3629 -1.0327  0.8243
    6CHTO   N13 2266   4.370   3.714   1.951 -0.1210 -0.5867  0.7995
    6CHTO  H139 2267   4.401   3.669   1.857 -1.0404 -1.0136  0.6927
    6CHTO  H140 2268   4.465   3.708   2.002  1.4122  0.3514 -1.8528
    6CHTO   C76 2269   4.369   3.935   1.815 -0.4849  0.5238 -0.3534
    6CHTO  H148 2270   4.365   3.866   1.731 -3.9608  0.0974  0.0696
    6CHTO   O49 2271   4.297   4.057   1.794 -0.0096 -0.4023  0.0192
    6CHTO   C77 2272   4.154   4.042   1.776 -0.3056  0.7388  0.5382
    6CHTO  H149 2273   4.132   3.982   1.687 -1.3584  1.5856  0.2215
    6CHTO   C88 2274   4.097   4.180   1.740 -0.2104  0.3578 -0.3986
    6CHTO   O58 2275   4.197   4.263   1.638 -0.1294 -0.5084 -0.2683
    6CHTO  H136 2276   4.273   4.209   1.634 -0.5328 -1.0268 -0.9447
    6CHTO   O51 2277   4.504   3.984   1.862  0.2793  0.1696 -0.3144
    6CHTO   C78 2278   4.619   4.026   1.743  0.0950  0.5398 -0.3575
    6CHTO  H150 2279   4.696   4.093   1.787  0.6464 -0.5071  0.2938
    6CHTO   C80 2280   4.551   4.103   1.635 -0.2395  0.4986 -0.2737
    6CHTO  H152 2281   4.467   4.041   1.598 -0.6960  0.7815  0.2964
    6CHTO   O55 2282   4.503   4.229   1.687  0.2234 -0.3733  0.1199
    6CHTO  H134 2283   4.423   4.205   1.730  0.0214  0.1569  0.0554
    6CHTO   C84 2284   4.655   4.139   1.517 -0.0513  0.1024  0.2669
    6CHTO  H156 2285   4.728   4.211   1.554  0.6342 -0.2570 -0.3584
    6CHTO   N15 2286   4.590   4.196   1.397 -0.1885 -0.1830 -0.5832
    6CHTO  H143 2287   4.668   4.246   1.343 -1.2418  3.6352  1.2933
    6CHTO  H144 2288   4.524   4.275   1.425 -0.8092 -1.1716  0.8007
    6CHTO   C87 2289   4.753   4.020   1.487 -0.7248  0.5851 -0.1202
    6CHTO  H159 2290   4.702   3.957   1.413 -0.0423 -0.4602  0.2895
    6CHTO   O53 2291   4.794   3.929   1.613  0.0746 -0.0276  0.5793
    6CHTO   C82 2292   4.682   3.895   1.700 -0.0290 -0.5664 -0.0504
    6CHTO  H154 2293   4.605   3.841   1.644 -1.3073  2.8273 -1.7282
    6CHTO   C89 2294   4.732   3.796   1.814  0.4927  0.1952  0.3007
    6CHTO   O59 2295   4.732   3.663   1.767 -0.1620 -0.0625  0.4210
    6CHTO  H137 2296   4.679   3.605   1.819 -0.8945 -0.8818 -1.2123
    6CHTO   O45 2297   4.888   4.079   1.411  0.6471  0.8600  0.2371
    6CHTO   C67 2298   5.013   4.071   1.486 -0.0842 -0.1856 -0.0154
    6CHTO  H124 2299   5.029   3.968   1.519  0.1468 -0.2779 -0.4140
    6CHTO   C65 2300   5.123   4.107   1.385  0.6444 -0.3468 -0.6683
    6CHTO  H122 2301   5.103   4.054   1.291 -1.2431 -1.4785  0.3392
    6CHTO   O44 2302   5.251   4.062   1.428  0.2246  0.1198  0.3537
    6CHTO  H102 2303   5.314   4.081   1.361  0.6902 -0.9152  0.4735
    6CHTO   C63 2304   5.116   4.258   1.356 -0.4216  0.0499 -0.4516
    6CHTO  H120 2305   5.018   4.286   1.318  0.7738  0.8486 -3.0386
    6CHTO   N11 2306   5.198   4.309   1.236  0.3930  0.6496  0.0123
    6CHTO  H108 2307   5.201   4.231   1.164  1.0501  0.3980  0.3146
    6CHTO  H109 2308   5.294   4.349   1.257  1.6769 -0.8267 -2.8453
    6CHTO   C61 2309   5.133   4.341   1.491 -1.0545 -0.2757  0.2841
    6CHTO  H118 2310   5.112   4.446   1.464 -2.1056 -0.8668 -1.2970
    6CHTO   O40 2311   5.040   4.300   1.588 -0.1080 -0.3332 -0.1083
    6CHTO   C68 2312   5.012   4.159   1.618  0.0612 -0.0273 -0.6992
    6CHTO  H125 2313   4.909   4.149   1.656  0.3256  2.6907  0.8014
    6CHTO   C72 2314   5.097   4.116   1.735 -0.5811 -0.1356 -0.1021
    6CHTO   O48 2315   5.067   3.995   1.796 -0.4068 -0.4831  0.0429
    6CHTO  H105 2316   4.997   4.007   1.857 -1.0139 -0.5354 -0.6469
    6CHTO   O38 2317   5.266   4.326   1.541  0.6166 -0.3847 -0.5508
    6CHTO   C55 2318   5.315   4.429   1.626 -0.6505 -0.3254 -0.0746
    6CHTO  H112 2319   5.237   4.462   1.697  0.5238  0.5884  0.8199
    6CHTO   C56 2320   5.363   4.550   1.526 -0.8575  0.8478  0.1676
    6CHTO  H113 2321   5.425   4.502   1.449 -0.1158 -1.0108  1.8931
    6CHTO   O42 2322   5.251   4.615   1.465 -0.0630 -0.0980  0.2229
    6CHTO  H100 2323   5.232   4.589   1.377 -0.1899 -0.0952  0.2500
    6CHTO   C57 2324   5.452   4.661   1.600  0.6581 -0.0166 -0.0539
    6CHTO  H114 2325   5.375   4.712   1.660  0.7505  0.0320  0.0250
    6CHTO   N10 2326   5.525   4.747   1.503 -0.5862  0.0310  0.8420
    6CHTO  H106 2327   5.466   4.825   1.456 -1.0266  0.0867  1.4860
    6CHTO  H107 2328   5.573   4.684   1.430 -0.9367 -0.6008  1.1579
    6CHTO   C58 2329   5.546   4.602   1.706  0.7433  0.4969  0.6477
    6CHTO  H115 2330   5.631   4.553   1.653 -0.6710 -0.6386 -0.6359
    6CHTO   O37 2331   5.477   4.508   1.789 -0.1332  0.3492  0.2665
    6CHTO   C59 2332   5.429   4.389   1.721 -0.3220  0.1125  0.1883
    6CHTO  H116 2333   5.514   4.353   1.664 -0.7373  1.1347 -1.0933
    6CHTO   C70 2334   5.387   4.285   1.816 -0.4568  0.1068 -0.0622
    6CHTO   O46 2335   5.310   4.329   1.929 -0.1315 -0.6101 -0.1171
    6CHTO  H103 2336   5.369   4.360   1.995 -0.8325  0.4691  0.0218
    6CHTO   O39 2337   5.581   4.725   1.811 -0.0413  0.5097 -0.1317
    6CHTO   C60 2338   5.720   4.764   1.807  0.2099 -0.6624 -0.6124
    6CHTO  H117 2339   5.768   4.720   1.720 -1.1255 -0.0449 -1.6660
    6CHTO   C62 2340   5.736   4.912   1.779 -0.1936 -0.3792 -0.1368
    6CHTO  H119 2341   5.665   4.948   1.701 -2.0638  1.0559  2.1599
    6CHTO   O43 2342   5.706   4.987   1.898  1.0719  0.4172  0.1237
    6CHTO  H101 2343   5.737   5.074   1.883  1.2513  0.1725 -0.9841
    6CHTO   C66 2344   5.889   4.928   1.730 -0.3944 -0.2523  0.6811
    6CHTO  H123 2345   5.906   4.856   1.650 -3.2662  1.0074 -1.1307
    6CHTO   N12 2346   5.926   5.065   1.680 -0.1462 -0.0979  0.0220
    6CHTO  H110 2347   5.978   5.049   1.586  0.6896  1.7514  0.1480
    6CHTO  H111 2348   5.840   5.121   1.646 -1.0240 -0.7281  1.1832
    6CHTO   C69 2349   5.991   4.882   1.843 -0.2761  0.0197 -0.5142
    6CHTO  H126 2350   5.990   4.956   1.925  0.5946  2.0815 -2.3129
    6CHTO   O41 2351   5.960   4.756   1.893  0.7880 -0.2113  0.0664
    6CHTO   C64 2352   5.810   4.722   1.923  0.3994  0.1661 -0.3313
    6CHTO  H121 2353   5.771   4.774   2.013 -1.3903  0.2891 -1.1473
    6CHTO   C71 2354   5.797   4.571   1.948  0.0690  0.3339  0.1686
    6CHTO   O47 2355   5.864   4.546   2.070 -0.0533  0.3505  0.0814
    6CHTO  H104 2356   5.951   4.517   2.051 -1.0547 -1.8510 -1.2665
    6CHTO   O34 2357   6.140   4.879   1.779 -0.3282 -0.2735 -0.0364
    6CHTO   C49 2358   6.251   5.002   1.770  0.4599  0.3289 -0.1238
    6CHTO   H91 2359   6.212   5.081   1.706 -0.9186  0.0946  0.4090
    6CHTO   C47 2360   6.376   4.939   1.698 -0.0563 -0.0191  0.0149
    6CHTO   H89 2361   6.451   5.020   1.683  2.2329 -2.1107 -0.2508
    6CHTO   O33 2362   6.331   4.893   1.568  0.6319  0.8443 -0.1544
    6CHTO   H70 2363   6.356   4.952   1.499 -0.4336 -0.4651 -1.6923
    6CHTO   C45 2364   6.440   4.819   1.787 -0.1152 -0.4901 -0.0854
    6CHTO   H87 2365   6.371   4.733   1.793  0.0661 -0.6174  0.1463
    6CHTO    N8 2366   6.568   4.776   1.725 -0.1339  0.0045 -0.2545
    6CHTO   H75 2367   6.613   4.859   1.671 -0.4846 -0.5514 -1.4243
    6CHTO   H76 2368   6.542   4.703   1.650 -0.5691 -1.0986  0.9629
    6CHTO   C43 2369   6.466   4.880   1.942  0.5027 -0.0851 -0.4276
    6CHTO   H85 2370   6.483   4.791   2.003  0.9836 -1.1957 -2.1416
    6CHTO   O29 2371   6.352   4.960   1.990 -0.3597  0.2901  0.0852
    6CHTO   C50 2372   6.288   5.055   1.911  0.1875 -0.5806  0.9330
    6CHTO   H92 2373   6.189   5.079   1.954 -0.2247  0.1110 -0.3649
    6CHTO   C54 2374   6.362   5.201   1.908  0.0879  0.7696 -0.1177
    6CHTO   O36 2375   6.297   5.286   1.816  0.2600 -0.6266 -0.1150
    6CHTO   H72 2376   6.341   5.277   1.734 -2.6146  0.9014 -1.9384
    6CHTO   O27 2377   6.579   4.966   1.948 -0.2024  0.1276 -0.2419
    6CHTO   C37 2378   6.702   4.983   2.010  0.2704  0.1788  0.1660
    6CHTO   H79 2379   6.747   4.885   2.036  1.7764 -0.4551 -4.4030
    6CHTO   C38 2380   6.815   5.066   1.932 -0.3266  0.7420  0.1362
    6CHTO   H80 2381   6.778   5.168   1.911  0.5295  1.5466  2.3903
    6CHTO   O31 2382   6.843   4.995   1.807 -0.4237  0.1733 -0.2284
    6CHTO   H68 2383   6.814   5.043   1.732  0.4727 -0.7778 -1.2241
    6CHTO   C39 2384   6.950   5.086   2.020 -0.2935  0.5210 -0.4819
    6CHTO   H81 2385   6.986   4.987   2.050  1.1308  0.6379 -1.7240
    6CHTO    N7 2386   7.068   5.141   1.949  0.6701  0.1620 -0.3714
    6CHTO   H73 2387   7.084   5.234   2.003 -2.2895  0.4999  0.0085
    6CHTO   H74 2388   7.043   5.164   1.846  3.3525  1.5875 -0.7549
    6CHTO   C40 2389   6.915   5.153   2.158 -1.0451 -0.0384 -0.1441
    6CHTO   H82 2390   6.898   5.260   2.143  1.6568  0.5608  0.8326
    6CHTO   O26 2391   6.798   5.085   2.214 -0.3638 -0.3381  0.2655
    6CHTO   C41 2392   6.676   5.075   2.136  0.1934 -0.0448  0.0458
    6CHTO   H83 2393   6.646   5.173   2.096  0.3713  0.3102  0.7644
    6CHTO   C52 2394   6.567   5.015   2.232 -0.1126  0.2128  0.7311
    6CHTO   O35 2395   6.588   4.902   2.287 -0.0242  0.0552 -0.4858
    6CHTO   H71 2396   6.579   4.912   2.380 -1.1582 -2.4223 -0.3121
    6CHTO   O28 2397   7.016   5.117   2.250 -0.8850  0.6935  0.6025
    6CHTO   C42 2398   7.052   5.194   2.374  0.5591 -0.6066  0.4406
    6CHTO   H84 2399   6.983   5.278   2.367  1.8008  0.4092  0.1842
    6CHTO   C44 2400   7.195   5.260   2.370 -0.3935 -0.2858 -0.0165
    6CHTO   H86 2401   7.266   5.177   2.372  2.0212  1.6875 -1.2575
    6CHTO   O32 2402   7.204   5.330   2.242 -0.7643 -0.0587 -0.5683
    6CHTO   H69 2403   7.204   5.262   2.177 -0.1057 -0.1840 -0.4345
    6CHTO   C48 2404   7.229   5.351   2.499  0.8896  0.6215 -0.2984
    6CHTO   H90 2405   7.164   5.437   2.512  1.5893  1.2051 -0.5979
    6CHTO    N9 2406   7.363   5.408   2.504 -0.6295 -0.3471 -0.5205
    6CHTO   H77 2407   7.386   5.459   2.411 -0.4245  0.5030 -0.0036
    6CHTO   H78 2408   7.441   5.336   2.524 -0.4272  0.1029  0.3431
    6CHTO   C51 2409   7.206   5.274   2.637  0.2626  0.4341  0.1767
    6CHTO   H93 2410   7.284   5.198   2.648  0.7642  1.2778  2.9506
    6CHTO   O30 2411   7.073   5.219   2.641  0.6546 -0.7678  0.0477
    6CHTO   C46 2412   7.031   5.129   2.516 -0.2414 -0.0649 -0.1513
    6CHTO   H88 2413   7.097   5.042   2.524 -1.6240 -1.1249  0.0403
    6CHTO   C53 2414   6.886   5.090   2.538 -0.6779 -0.6232  0.0887
    6CHTO   O72 2415   6.800   5.203   2.543  0.3465 -0.0554  0.4585
    6CHTO  H199 2416   6.747   5.192   2.620 -0.6628  2.1869  0.1398
    6CHTO   O22 2417   7.213   5.361   2.754  0.0418  0.1614  0.1666
    6CHTO   C31 2418   7.111   5.384   2.860 -0.1392  0.2702  0.4073
    6CHTO   H59 2419   7.033   5.306   2.850 -2.7816  2.7395  1.2564
    6CHTO   C29 2420   7.168   5.376   3.004 -0.8985  0.1210  0.1712
    6CHTO   H57 2421   7.251   5.447   3.012  0.2504 -1.2406  0.4837
    6CHTO   O21 2422   7.222   5.240   3.012  0.5892 -1.1509  0.1834
    6CHTO   H37 2423   7.288   5.241   3.079  1.0971  0.0344 -0.3279
    6CHTO   C27 2424   7.055   5.414   3.111 -0.2427  0.1207 -0.0589
    6CHTO   H55 2425   6.985   5.329   3.121  0.3024 -0.2299  0.8652
    6CHTO    N5 2426   7.119   5.423   3.246 -0.3638  0.3912 -0.2426
    6CHTO   H43 2427   7.103   5.524   3.281  0.8259  1.9489 -3.9512
    6CHTO   H44 2428   7.071   5.353   3.313 -3.6480  2.7707  0.0360
    6CHTO   C25 2429   6.984   5.551   3.072 -1.1656  0.7218  0.1391
    6CHTO   H53 2430   7.052   5.634   3.099  0.8952 -1.0458  0.5817
    6CHTO   O17 2431   6.946   5.557   2.931  0.0555 -0.4920  0.3938
    6CHTO   C32 2432   7.047   5.525   2.835  0.1302  0.5651  0.4246
    6CHTO   H60 2433   7.124   5.603   2.843  0.4143  0.0589  3.2398
    6CHTO   C36 2434   6.984   5.529   2.693 -0.6139 -0.7860  0.6025
    6CHTO   O25 2435   6.864   5.450   2.696  0.1675 -0.2191  0.0629
    6CHTO   H40 2436   6.825   5.446   2.611  0.4640  0.0122 -0.0868
    6CHTO   O15 2437   6.855   5.562   3.158 -0.5756 -0.0900 -0.4178
    6CHTO   C19 2438   6.756   5.655   3.190 -0.3617  0.1606 -0.1515
    6CHTO   H47 2439   6.684   5.609   3.259  0.0006  0.0871  0.1767
    6CHTO   C20 2440   6.829   5.774   3.265  0.1721 -0.3482  0.5710
    6CHTO   H48 2441   6.909   5.818   3.204  0.2528 -0.6173  0.4836
    6CHTO   O19 2442   6.886   5.719   3.385  0.3231 -0.0319 -0.4140
    6CHTO   H35 2443   6.949   5.783   3.413  0.1809  1.1601 -2.7347
    6CHTO   C21 2444   6.728   5.893   3.294 -0.6766  0.0284 -0.1903
    6CHTO   H49 2445   6.663   5.861   3.376  0.2596 -2.7057 -0.4706
    6CHTO    N4 2446   6.783   6.019   3.344 -0.1866  0.1255 -0.1897
    6CHTO   H41 2447   6.820   6.090   3.272  0.6263 -0.8773 -0.7719
    6CHTO   H42 2448   6.714   6.061   3.416  1.3131 -0.5639  1.7062
    6CHTO   C22 2449   6.627   5.910   3.179  0.8954 -0.2296  0.3763
    6CHTO   H50 2450   6.683   5.963   3.101  1.6811  3.2682  3.1805
    6CHTO   O14 2451   6.572   5.788   3.130  0.3874 -0.0858  0.3490
    6CHTO   C23 2452   6.672   5.706   3.068  0.4967 -0.7503  1.0084
    6CHTO   H51 2453   6.734   5.757   2.992 -0.2117  0.3823  1.1811
    6CHTO   C34 2454   6.612   5.579   3.004  0.3886  0.5428  1.1234
    6CHTO   O23 2455   6.497   5.538   3.073 -0.2033  0.0649 -0.3648
    6CHTO   H38 2456   6.449   5.466   3.035  0.2201  0.5671 -1.8716
    6CHTO   O16 2457   6.518   5.996   3.206 -0.2016 -0.4368  0.0391
    6CHTO   C24 2458   6.419   6.032   3.093  0.7195  0.2346 -0.4344
    6CHTO   H52 2459   6.440   5.974   3.003 -0.6895 -0.8395 -0.0935
    6CHTO   C26 2460   6.423   6.183   3.059  0.5927  0.2239  0.0031
    6CHTO   H54 2461   6.439   6.236   3.155 -0.4176  0.6298 -0.0472
    6CHTO   O20 2462   6.550   6.202   3.001 -0.7640 -0.0117 -0.8121
    6CHTO   H36 2463   6.597   6.283   3.011 -1.6711  0.5957 -1.3690
    6CHTO   C30 2464   6.308   6.253   2.986 -0.0461  0.6251  0.5484
    6CHTO   H58 2465   6.322   6.251   2.877 -0.8598  3.4746  0.3592
    6CHTO    N6 2466   6.303   6.400   3.006 -0.2898  0.8263 -0.1878
    6CHTO   H45 2467   6.323   6.415   3.111 -0.2501  0.1481 -0.0939
    6CHTO   H46 2468   6.201   6.430   2.990  0.6665  4.7001  0.5235
    6CHTO   C33 2469   6.174   6.181   3.014  0.2466 -0.2675  0.4347
    6CHTO   H61 2470   6.133   6.225   3.106 -1.7094 -1.3052  0.0893
    6CHTO   O18 2471   6.194   6.040   3.030 -0.0824 -0.1920 -0.3656
    6CHTO   C28 2472   6.277   5.997   3.137  0.0825  0.1539  0.2611
    6CHTO   H56 2473   6.245   6.057   3.222  0.8861  2.3823 -0.9608
    6CHTO   C35 2474   6.271   5.847   3.176  0.2009  0.8174  0.5314
    6CHTO   O24 2475   6.155   5.824   3.264 -0.1820 -0.2471  0.5018
    6CHTO   H39 2476   6.170   5.804   3.355  0.9586 -2.2590 -0.0873
    6CHTO    O9 2477   6.075   6.210   2.915 -0.3910  0.3770  0.1871
    6CHTO   C13 2478   5.924   6.208   2.959  0.9902  0.5112 -0.8063
    6CHTO   H26 2479   5.913   6.234   3.066  0.5945  1.9828 -1.1950
    6CHTO   C11 2480   5.868   6.061   2.932  0.1174  0.4174  0.2452
    6CHTO   H24 2481   5.925   5.996   2.999  1.1673  0.0964 -0.9565
    6CHTO    O8 2482   5.903   6.019   2.798  0.4380 -0.1942 -0.1016
    6CHTO    H3 2483   5.879   5.929   2.785 -1.4529  0.3561 -0.7013
    6CHTO    C9 2484   5.721   6.052   2.976  0.4456 -0.2624 -0.2584
    6CHTO   H22 2485   5.723   6.071   3.084  1.9000 -1.6033 -0.0387
    6CHTO    N2 2486   5.669   5.911   2.965 -1.0147  0.3544  0.0226
    6CHTO   H10 2487   5.581   5.908   2.902 -1.4578 -2.6888  0.7235
    6CHTO   H11 2488   5.659   5.855   3.057  0.3425  0.9384  0.5473
    6CHTO    C7 2489   5.635   6.173   2.913 -0.2431  0.3960  0.1407
    6CHTO   H20 2490   5.606   6.229   3.005  1.0516  2.1845 -0.4954
    6CHTO    O4 2491   5.706   6.256   2.827 -0.9469 -0.3026  0.3238
    6CHTO   C14 2492   5.830   6.310   2.881 -0.4306 -0.2764  0.1339
    6CHTO   H27 2493   5.785   6.388   2.946 -3.6714 -1.1955 -0.9166
    6CHTO   C18 2494   5.897   6.384   2.770 -0.0924 -0.4160  0.2902
    6CHTO   O13 2495   5.809   6.478   2.704  0.3946 -0.2435 -0.5310
    6CHTO    H7 2496   5.852   6.524   2.634 -0.6134 -1.5925 -2.0763
    6CHTO    O2 2497   5.502   6.131   2.844 -0.3554 -0.4001 -0.6143
    6CHTO    C1 2498   5.385   6.193   2.902 -0.0009 -0.5272  0.0507
    6CHTO   H14 2499   5.406   6.295   2.942 -1.9445 -0.3578  0.6991
    6CHTO    C2 2500   5.307   6.112   3.007  0.0300  0.3276 -0.8450
    6CHTO   H15 2501   5.310   6.005   2.984  3.0747  0.1301  0.1345
    6CHTO    O6 2502   5.379   6.127   3.136  0.0090 -0.1848 -0.0249
    6CHTO    H1 2503   5.388   6.217   3.160 -2.6577  0.2646 -0.5136
    6CHTO    C3 2504   5.157   6.150   3.034  0.4501 -0.0899 -0.1789
    6CHTO   H16 2505   5.146   6.237   3.101  0.4660  1.5064 -2.1970
    6CHTO    N1 2506   5.088   6.031   3.098 -0.0357 -0.4334  0.3120
    6CHTO    H8 2507   5.031   6.080   3.176  1.2533  2.1552 -0.3335
    6CHTO    H9 2508   5.160   5.959   3.134 -0.2946 -1.4383 -1.1629
    6CHTO    C4 2509   5.088   6.187   2.895 -0.1675 -0.2235  0.2660
    6CHTO   H17 2510   5.063   6.095   2.841 -3.0858  0.3745  0.5171
    6CHTO    O1 2511   5.166   6.273   2.812 -0.3800  0.5688 -0.1758
    6CHTO    C5 2512   5.293   6.213   2.776 -0.4241  0.4859 -0.1736
    6CHTO   H18 2513   5.278   6.120   2.722 -1.8498 -1.4359  3.3393
    6CHTO   C16 2514   5.356   6.308   2.680  0.2518 -0.2233 -0.4882
    6CHTO   O11 2515   5.274   6.343   2.567 -0.6272 -0.4361  0.2289
    6CHTO    H5 2516   5.331   6.384   2.505 -0.0371  1.7478  2.1453
    6CHTO    O3 2517   4.977   6.274   2.930 -0.4506  0.3075  0.0726
    6CHTO    C6 2518   4.848   6.263   2.856  0.3412 -0.7381  1.3081
    6CHTO   H19 2519   4.781   6.347   2.879 -1.6042 -2.2064  1.1780
    6CHTO    C8 2520   4.860   6.259   2.709 -0.4993 -0.4770  0.1799
    6CHTO   H21 2521   4.937   6.185   2.686 -0.2089 -0.2125  0.3051
    6CHTO    O7 2522   4.915   6.390   2.651 -0.0143  0.0113 -0.4046
    6CHTO    H2 2523   4.970   6.436   2.711  0.5736 -0.7301 -0.3639
    6CHTO   C12 2524   4.725   6.228   2.626  1.1308 -0.2092 -0.2333
    6CHTO   H25 2525   4.672   6.325   2.630  0.4065 -0.5963 -0.4059
    6CHTO    N3 2526   4.744   6.198   2.484 -0.5920  0.1924  0.7320
    6CHTO   H12 2527   4.840   6.244   2.463  0.0510 -1.6269 -0.3937
    6CHTO   H13 2528   4.768   6.094   2.471  2.0002  0.8177  0.3475
    6CHTO   C15 2529   4.640   6.115   2.703  0.1954 -0.1236  0.1429
    6CHTO   H28 2530   4.669   6.013   2.677 -0.7159  0.1152 -1.9060
    6CHTO   O10 2531   4.485   6.124   2.676  0.2989 -0.4044 -0.4338
    6CHTO    H4 2532   4.473   6.117   2.583  0.2272  1.5317 -0.6034
    6CHTO    O5 2533   4.637   6.135   2.844  0.3007  0.0396 -0.4619
    6CHTO   C10 2534   4.768   6.136   2.904  0.1573 -0.0910  0.1799
    6CHTO   H23 2535   4.813   6.043   2.868 -1.2209 -0.1719 -1.4134
    6CHTO   C17 2536   4.756   6.123   3.053 -0.7172 -0.1986  0.1508
    6CHTO   O12 2537   4.710   6.001   3.104  0.1109 -0.0712  0.0390
    6CHTO    H6 2538   4.647   6.020   3.170 -0.6583  0.8129 -0.9323
    7CHTO  H203 2539   4.753   1.177   0.854 -1.4181  0.9886  0.7249
    7CHTO   O82 2540   4.692   1.169   0.784 -0.2029 -0.9773 -0.1303
    7CHTO  C123 2541   4.760   1.149   0.663  0.0982 -0.5033 -0.2990
    7CHTO  H227 2542   4.700   1.092   0.591  0.3693  1.1190 -1.8189
    7CHTO   O77 2543   4.772   1.283   0.605  0.0033  1.0555 -1.1231
    7CHTO  C118 2544   4.858   1.295   0.491  0.1411  0.6243 -0.9378
    7CHTO  H222 2545   4.808   1.237   0.411 -1.2953 -0.9510  1.0344
    7CHTO  C125 2546   4.859   1.451   0.448  0.5289 -0.1393 -0.5492
    7CHTO   O84 2547   4.740   1.487   0.381 -0.2946  0.2458  0.3760
    7CHTO  H205 2548   4.719   1.577   0.399  2.0609  0.6017  1.4634
    7CHTO  C114 2549   4.997   1.249   0.521 -0.0913 -0.2370  0.2790
    7CHTO  H218 2550   5.041   1.316   0.594 -0.0835 -0.4268  0.4502
    7CHTO  C116 2551   5.003   1.097   0.558  0.7557  0.4573 -0.3689
    7CHTO  H220 2552   4.970   1.022   0.483  1.4684 -1.1447  0.8787
    7CHTO   O79 2553   5.140   1.062   0.588 -0.1483  0.4137  0.1626
    7CHTO  H201 2554   5.163   0.971   0.585 -1.1452  0.0475  2.3605
    7CHTO  C120 2555   4.902   1.075   0.684 -0.2936  0.0575  0.4742
    7CHTO  H224 2556   4.960   1.125   0.764  0.0033 -3.0587  2.2979
    7CHTO   N21 2557   4.892   0.935   0.737 -0.1546 -0.4241 -0.1432
    7CHTO  H211 2558   4.983   0.887   0.704  0.9542 -0.2156  2.4776
    7CHTO  H212 2559   4.884   0.932   0.845  0.5429 -2.4963 -0.1337
    7CHTO   O75 2560   5.070   1.281   0.402  0.2109 -0.5858 -0.0178
    7CHTO  C112 2561   5.207   1.359   0.391  0.3228  0.8234  0.8353
    7CHTO  H216 2562   5.289   1.288   0.405 -0.3390  0.3292  2.3510
    7CHTO   O73 2563   5.203   1.465   0.491  0.0058 -0.2935  0.0492
    7CHTO  C113 2564   5.326   1.538   0.497 -0.0815  0.1393  0.1769
    7CHTO  H217 2565   5.410   1.466   0.499  0.2316  0.4426 -1.2202
    7CHTO  C124 2566   5.342   1.622   0.628  0.0939 -0.6094 -0.2023
    7CHTO   O83 2567   5.347   1.539   0.738 -0.4630  0.0034 -0.0733
    7CHTO  H204 2568   5.345   1.447   0.719 -0.2464  0.1323 -0.7338
    7CHTO  C109 2569   5.337   1.620   0.375 -0.0566  0.2945  0.1673
    7CHTO  H213 2570   5.243   1.676   0.362 -0.7475 -1.2359 -1.6199
    7CHTO  C110 2571   5.348   1.530   0.258 -0.1677  0.4561 -0.0780
    7CHTO  H214 2572   5.438   1.471   0.274 -1.5724 -1.6690  0.2032
    7CHTO   O78 2573   5.347   1.611   0.134  0.3632 -0.2475 -1.1879
    7CHTO  H200 2574   5.352   1.551   0.062 -1.5810 -1.0293 -0.7032
    7CHTO  C111 2575   5.225   1.434   0.250  0.2553 -0.0232 -0.3748
    7CHTO  H215 2576   5.140   1.498   0.226 -0.4341 -0.3028  1.2349
    7CHTO   N19 2577   5.246   1.337   0.138  0.4996 -0.3306 -0.8024
    7CHTO  H207 2578   5.337   1.278   0.141  1.3536  0.9044 -2.1860
    7CHTO  H208 2579   5.221   1.371   0.039  1.1471  0.5002 -0.6863
    7CHTO   O74 2580   5.451   1.712   0.382  0.3433 -0.3991  0.2661
    7CHTO  C115 2581   5.422   1.869   0.303  0.0635  0.8085  0.3470
    7CHTO  H219 2582   5.336   1.863   0.236  0.1405 -3.8186  0.5099
    7CHTO   O76 2583   5.387   1.992   0.426 -0.0536 -0.2866  0.4925
    7CHTO  C122 2584   5.503   2.035   0.503  0.0319  0.2911  0.1370
    7CHTO  H226 2585   5.543   1.953   0.563  2.3472  1.8472  0.7705
    7CHTO  C126 2586   5.459   2.145   0.606 -0.2117 -0.3856  0.1225
    7CHTO   O85 2587   5.560   2.168   0.706 -0.8504 -0.0177 -0.4735
    7CHTO  H206 2588   5.634   2.114   0.688 -0.6626  0.9085 -2.6776
    7CHTO  C121 2589   5.617   2.082   0.399 -0.8267  0.0634  0.4448
    7CHTO  H225 2590   5.596   2.167   0.331  3.0798  0.8320  0.0773
    7CHTO   O81 2591   5.722   2.131   0.487 -0.0625  0.3515 -0.2246
    7CHTO  H202 2592   5.761   2.054   0.524 -0.5470 -0.1255 -0.6926
    7CHTO  C119 2593   5.667   1.965   0.309  0.0028  0.3727 -0.4382
    7CHTO  H223 2594   5.744   2.007   0.245 -0.2458 -1.6969 -2.1497
    7CHTO  C117 2595   5.552   1.910   0.214  0.3617  0.2371 -0.1153
    7CHTO  H221 2596   5.578   1.817   0.164  1.0657 -0.0156  0.7120
    7CHTO   N20 2597   5.517   2.004   0.103  0.5487  0.0485 -0.9378
    7CHTO  H209 2598   5.538   1.975   0.001 -1.1483 -1.4612 -0.8770
    7CHTO  H210 2599   5.411   2.022   0.110  0.5557 -0.2736  0.0315
    7CHTO   O80 2600   5.738   1.855   0.389  0.2802 -0.2467  0.0498
    7CHTO  C103 2601   5.775   1.708   0.313 -0.1364  0.0259  0.8526
    7CHTO  H190 2602   5.684   1.671   0.267  1.8184 -1.9204 -1.6020
    7CHTO  C101 2603   5.889   1.717   0.211  0.5049 -0.4715  0.3068
    7CHTO  H188 2604   5.977   1.755   0.261  1.1973 -2.9470  1.0227
    7CHTO   O68 2605   5.842   1.815   0.105 -0.8247  0.1860 -0.9848
    7CHTO  H168 2606   5.878   1.896   0.137  0.9342 -1.3474  1.0615
    7CHTO   C99 2607   5.910   1.569   0.147 -0.7939 -0.7958 -0.4154
    7CHTO  H186 2608   5.817   1.534   0.098 -1.0519  0.6323 -0.9657
    7CHTO   N17 2609   6.019   1.569   0.042  0.6555  0.2460  0.4544
    7CHTO  H174 2610   6.086   1.485   0.055  0.0432 -0.4575 -0.8839
    7CHTO  H175 2611   5.971   1.566  -0.055 -0.0825 -0.8022  0.8394
    7CHTO   C97 2612   5.939   1.471   0.266  0.8462  0.7884 -0.3722
    7CHTO  H184 2613   6.036   1.504   0.306  0.2535  1.1010  0.8280
    7CHTO   O64 2614   5.838   1.466   0.369 -0.3515 -0.0810  0.1886
    7CHTO  C104 2615   5.811   1.596   0.419 -0.5959  0.5482  0.3418
    7CHTO  H191 2616   5.900   1.626   0.474 -0.9458  2.3709 -0.0618
    7CHTO  C108 2617   5.697   1.584   0.522 -0.2380  0.2531 -0.5231
    7CHTO   O71 2618   5.708   1.504   0.644 -0.4798  0.0135  0.0007
    7CHTO  H171 2619   5.628   1.458   0.662 -0.5823  0.3027  0.2964
    7CHTO   O62 2620   5.950   1.330   0.236 -0.8413  0.6083  0.1691
    7CHTO   C91 2621   5.872   1.271   0.124 -0.1904 -0.2494 -0.8313
    7CHTO  H178 2622   5.898   1.327   0.034 -1.2376  0.1532 -0.8866
    7CHTO   C92 2623   5.720   1.267   0.155  0.8288  0.2977  0.7840
    7CHTO  H179 2624   5.685   1.370   0.169 -0.6123 -0.2071  0.9189
    7CHTO   O66 2625   5.652   1.222   0.037  0.3243 -0.6305 -0.5701
    7CHTO  H166 2626   5.564   1.191   0.051 -0.5668  2.3202  0.9689
    7CHTO   C93 2627   5.672   1.163   0.262  0.5198 -0.7182 -0.7909
    7CHTO  H180 2628   5.576   1.123   0.226 -0.1087 -1.6476  1.8668
    7CHTO   N16 2629   5.636   1.213   0.394 -0.1612 -0.4238  0.4980
    7CHTO  H172 2630   5.635   1.320   0.410 -0.0388 -0.7972  3.2752
    7CHTO  H173 2631   5.539   1.180   0.428  0.2217 -0.3244  1.7027
    7CHTO   C94 2632   5.777   1.046   0.274 -0.6697  0.3515  0.5148
    7CHTO  H181 2633   5.854   1.071   0.347 -0.0369  0.2741 -0.1240
    7CHTO   O61 2634   5.837   1.017   0.146  0.0952 -0.1053 -0.1578
    7CHTO   C95 2635   5.919   1.118   0.093 -0.9903 -0.1237  0.5045
    7CHTO  H182 2636   6.022   1.101   0.125 -1.0567 -1.1546  0.1622
    7CHTO  C106 2637   5.940   1.091  -0.062  0.3504  0.1210 -0.1622
    7CHTO   O69 2638   5.955   0.954  -0.101  0.1486  0.3549 -0.2693
    7CHTO  H169 2639   6.045   0.931  -0.113  0.3812  1.0994  0.0339
    7CHTO   O63 2640   5.695   0.903   0.305  0.3237 -0.6804  0.2408
    7CHTO   C96 2641   5.777   0.803   0.405 -0.4912  0.1675  0.3866
    7CHTO  H183 2642   5.822   0.864   0.482  0.8024  0.4085 -0.5535
    7CHTO   C98 2643   5.893   0.719   0.336  1.2761  0.1971 -0.2231
    7CHTO  H185 2644   5.961   0.791   0.289  3.4950 -1.5634  0.2111
    7CHTO   O67 2645   5.976   0.646   0.432  0.8580 -0.0252  0.0099
    7CHTO  H167 2646   5.916   0.599   0.487  0.8224 -0.2304 -0.2044
    7CHTO  C102 2647   5.843   0.621   0.229 -0.0301  0.2349  0.1674
    7CHTO  H189 2648   5.933   0.568   0.196 -0.0999 -1.0950  2.0746
    7CHTO   N18 2649   5.792   0.677   0.096 -0.4403  0.5131 -0.4525
    7CHTO  H176 2650   5.754   0.593   0.040 -2.6299 -0.0824  1.7987
    7CHTO  H177 2651   5.874   0.727   0.046 -1.0575  1.9551 -0.0699
    7CHTO  C105 2652   5.729   0.527   0.287  0.3712 -0.5997  0.2183
    7CHTO  H192 2653   5.657   0.492   0.212  1.0592 -1.6215  0.0250
    7CHTO   O65 2654   5.648   0.583   0.395 -0.0570 -0.1443 -0.2592
    7CHTO  C100 2655   5.678   0.701   0.466 -0.5808 -0.2239  0.5121
    7CHTO  H187 2656   5.577   0.743   0.481 -1.3990 -2.1557  0.6231
    7CHTO  C107 2657   5.725   0.662   0.605  0.7859 -0.4075 -0.2744
    7CHTO   O70 2658   5.627   0.603   0.686  0.0338  0.5165 -0.0583
    7CHTO  H170 2659   5.654   0.586   0.774 -1.7446 -0.9124  0.2185
    7CHTO   O57 2660   5.813   0.386   0.344 -0.4379  0.9455 -0.1762
    7CHTO   C85 2661   5.842   0.272   0.259 -0.2812 -0.5991  0.5008
    7CHTO  H157 2662   5.861   0.306   0.155  1.1562 -3.5444 -0.2435
    7CHTO   C83 2663   5.706   0.194   0.245  0.1953  0.0900  0.4329
    7CHTO  H155 2664   5.632   0.263   0.205 -0.3940  1.2878  3.4369
    7CHTO   O56 2665   5.663   0.146   0.375  0.7010  0.8145  0.8604
    7CHTO  H135 2666   5.642   0.219   0.430 -2.7604  1.1771 -0.8106
    7CHTO   C81 2667   5.722   0.076   0.146  0.1952 -0.1759 -0.1527
    7CHTO  H153 2668   5.749   0.117   0.049 -1.0846  2.4954  0.5866
    7CHTO   N14 2669   5.591   0.004   0.123  0.4354 -0.0374  0.4968
    7CHTO  H141 2670   5.515   0.054   0.180  1.2953 -0.1255  1.7278
    7CHTO  H142 2671   5.570   0.008   0.018 -0.0742 -2.2287  0.4976
    7CHTO   C79 2672   5.839  -0.017   0.192 -0.3158  0.1187  0.8711
    7CHTO  H151 2673   5.867  -0.082   0.109  0.0814  0.9494  0.3474
    7CHTO   O52 2674   5.968   0.058   0.217 -0.0859  0.6481 -0.1397
    7CHTO   C86 2675   5.953   0.175   0.307 -0.0837  0.0865 -0.6741
    7CHTO  H158 2676   5.927   0.134   0.407 -2.7169  2.0748 -0.4676
    7CHTO   C90 2677   6.085   0.250   0.324 -0.2449  0.2667 -0.3853
    7CHTO   O60 2678   6.190   0.161   0.333 -0.1763  0.2396  0.6428
    7CHTO  H138 2679   6.226   0.162   0.420  2.1767 -1.0067 -0.2614
    7CHTO   O50 2680   5.807  -0.080   0.316  0.7833 -0.0113  0.2635
    7CHTO   C73 2681   5.818  -0.211   0.364  0.3255  0.7909 -0.7344
    7CHTO  H145 2682   5.907  -0.256   0.317 -0.7657 -0.6541 -1.4524
    7CHTO   C74 2683   5.691  -0.293   0.321  0.0308 -0.0434  0.0103
    7CHTO  H146 2684   5.675  -0.280   0.213  0.8291 -2.7328 -0.4705
    7CHTO   O54 2685   5.719  -0.434   0.336 -0.3386 -0.1893 -0.3585
    7CHTO  H133 2686   5.781  -0.457   0.269  0.4635  0.4594  0.1480
    7CHTO   C75 2687   5.569  -0.240   0.408 -0.3824 -0.5418 -0.6773
    7CHTO  H147 2688   5.557  -0.133   0.385 -0.3790 -1.1162 -3.5596
    7CHTO   N13 2689   5.440  -0.310   0.378  0.0001 -0.0809 -0.1503
    7CHTO  H139 2690   5.382  -0.254   0.306  1.7323  1.9360 -0.0017
    7CHTO  H140 2691   5.382  -0.319   0.469  0.2115  3.0465  0.3318
    7CHTO   C76 2692   5.599  -0.244   0.567  0.2498 -0.2607  0.2390
    7CHTO  H148 2693   5.602  -0.344   0.611 -0.0379  1.2916  4.0077
    7CHTO   O49 2694   5.720  -0.175   0.605  0.1608 -0.1791 -0.0357
    7CHTO   C77 2695   5.837  -0.216   0.527  0.7602 -0.3577  0.0875
    7CHTO  H149 2696   5.858  -0.318   0.559  0.6214 -0.0562  1.1689
    7CHTO   C88 2697   5.949  -0.122   0.561 -0.1991  0.1176 -0.7926
    7CHTO   O58 2698   6.020  -0.112   0.694  0.2151  0.6807 -0.5218
    7CHTO  H136 2699   6.113  -0.112   0.683  0.4801 -2.4455  0.9835
    7CHTO   O51 2700   5.495  -0.152   0.645 -0.0672 -0.3209  0.1548
    7CHTO   C78 2701   5.425  -0.199   0.769 -0.5500  0.1694 -0.1013
    7CHTO  H150 2702   5.501  -0.257   0.827  0.1185  0.4977 -0.6360
    7CHTO   C80 2703   5.295  -0.282   0.753 -0.1028  0.1752 -0.2201
    7CHTO  H152 2704   5.227  -0.221   0.690 -1.1074 -0.8915 -0.1818
    7CHTO   O55 2705   5.335  -0.404   0.686 -0.1170  0.6189 -0.6038
    7CHTO  H134 2706   5.317  -0.398   0.594  3.0703  1.1272 -1.2411
    7CHTO   C84 2707   5.229  -0.317   0.890  0.2060  0.1414 -0.0718
    7CHTO  H156 2708   5.292  -0.385   0.948 -1.0535 -3.2286 -2.5264
    7CHTO   N15 2709   5.092  -0.388   0.883 -0.2367 -0.4537  0.4837
    7CHTO  H143 2710   5.033  -0.329   0.816  0.1388 -0.3591  0.2407
    7CHTO  H144 2711   5.034  -0.403   0.972 -0.5442 -0.0017  0.3605
    7CHTO   C87 2712   5.215  -0.195   0.983  0.3040  0.9367  0.4191
    7CHTO  H159 2713   5.158  -0.114   0.939  2.9026  2.0636 -0.9884
    7CHTO   O53 2714   5.357  -0.132   0.987 -0.0959 -0.2361 -0.0651
    7CHTO   C82 2715   5.402  -0.076   0.861  0.3228  0.3151 -0.3105
    7CHTO  H154 2716   5.327  -0.010   0.818  1.4913  3.0362  1.7137
    7CHTO   C89 2717   5.531   0.006   0.884 -0.1360  0.4763  0.4105
    7CHTO   O59 2718   5.570   0.092   0.778 -0.6151 -0.4214  0.2119
    7CHTO  H137 2719   5.506   0.157   0.757 -1.6658 -2.5259 -3.3289
    7CHTO   O45 2720   5.168  -0.222   1.139 -0.2424 -0.5950 -0.7673
    7CHTO   C67 2721   5.161  -0.105   1.220  0.3881  0.3422  0.0328
    7CHTO  H124 2722   5.229  -0.034   1.173  1.3577 -1.0652 -0.7545
    7CHTO   C65 2723   5.021  -0.034   1.256  0.1025  0.4435 -0.4658
    7CHTO  H122 2724   4.941  -0.107   1.246  0.9269 -0.2650 -2.0999
    7CHTO   O44 2725   5.005   0.056   1.144 -0.5085 -0.7407  0.1479
    7CHTO  H102 2726   4.934   0.117   1.154  1.2838  1.3589  0.4948
    7CHTO   C63 2727   5.018   0.017   1.401 -0.7709  0.8121 -0.3253
    7CHTO  H120 2728   4.998  -0.066   1.468 -0.8815  0.5836 -0.6370
    7CHTO   N11 2729   4.890   0.089   1.426  0.2478 -0.3478 -0.5846
    7CHTO  H108 2730   4.797   0.040   1.403 -1.2194  1.9377  0.2736
    7CHTO  H109 2731   4.904   0.136   1.521 -0.2277  0.9304 -1.1353
    7CHTO   C61 2732   5.148   0.071   1.454  0.8179 -0.0676  0.8299
    7CHTO  H118 2733   5.136   0.099   1.559  0.3735 -1.6415  1.2166
    7CHTO   O40 2734   5.242  -0.039   1.445  0.3608  0.2867  0.3519
    7CHTO   C68 2735   5.239  -0.146   1.350  0.6559 -0.0318 -0.7290
    7CHTO  H125 2736   5.187  -0.232   1.397 -0.1758  0.8363 -0.0501
    7CHTO   C72 2737   5.384  -0.193   1.328  0.2060 -0.3340 -0.9563
    7CHTO   O48 2738   5.427  -0.273   1.440 -0.2882  0.3082  0.5639
    7CHTO  H105 2739   5.517  -0.259   1.461 -0.4621  3.0841 -0.3277
    7CHTO   O38 2740   5.201   0.187   1.384 -0.2470  0.6401  0.0201
    7CHTO   C55 2741   5.323   0.252   1.443 -0.3456  0.9794  0.2889
    7CHTO  H112 2742   5.359   0.182   1.519  1.7879  1.1321 -0.5420
    7CHTO   C56 2743   5.283   0.392   1.508  0.1144 -0.1019  0.5326
    7CHTO  H113 2744   5.222   0.449   1.436 -0.6422 -3.2297 -1.4169
    7CHTO   O42 2745   5.188   0.370   1.613  0.7243 -0.0027  0.0987
    7CHTO  H100 2746   5.146   0.443   1.655 -1.5790 -1.1096 -0.2199
    7CHTO   C57 2747   5.413   0.473   1.544 -0.2078 -0.2097 -0.8232
    7CHTO  H114 2748   5.472   0.426   1.623 -1.4974  0.6123  0.6423
    7CHTO   N10 2749   5.367   0.604   1.599  0.7371  0.2916 -0.1593
    7CHTO  H106 2750   5.352   0.683   1.527  2.5963  0.6206 -0.2022
    7CHTO  H107 2751   5.435   0.637   1.676 -0.2903  3.1249 -0.4107
    7CHTO   C58 2752   5.494   0.480   1.409 -0.1938 -0.5046 -0.8095
    7CHTO  H115 2753   5.429   0.531   1.335 -4.0160 -1.9211  1.4270
    7CHTO   O37 2754   5.541   0.350   1.375 -0.3775 -0.3898 -0.4634
    7CHTO   C59 2755   5.430   0.268   1.328 -0.0925  0.2657 -0.9457
    7CHTO  H116 2756   5.396   0.311   1.234  0.8360  1.3898 -0.7762
    7CHTO   C70 2757   5.482   0.137   1.286 -0.0089  0.3897  0.5817
    7CHTO   O46 2758   5.569   0.151   1.172 -0.3356 -0.7815  0.0276
    7CHTO  H103 2759   5.516   0.179   1.099 -0.0352 -0.3093 -0.0130
    7CHTO   O39 2760   5.622   0.585   1.443  0.5531 -0.3024 -0.2224
    7CHTO   C60 2761   5.722   0.578   1.344 -0.8037 -0.6364 -0.2240
    7CHTO  H117 2762   5.752   0.474   1.335  0.8383 -0.2268  0.3088
    7CHTO   C62 2763   5.681   0.636   1.210 -0.2953  0.0031 -0.0424
    7CHTO  H119 2764   5.590   0.577   1.186  1.2701 -1.6566 -2.1006
    7CHTO   O43 2765   5.639   0.772   1.236  0.0091  0.0280 -0.2459
    7CHTO  H101 2766   5.589   0.798   1.161  0.3810 -2.1896 -1.3058
    7CHTO   C66 2767   5.792   0.615   1.106 -0.0726 -0.3753  0.1515
    7CHTO  H123 2768   5.807   0.508   1.091 -1.6058 -0.3859 -1.5380
    7CHTO   N12 2769   5.749   0.667   0.974 -0.8745  0.6560 -1.3131
    7CHTO  H110 2770   5.717   0.583   0.913 -0.1118 -0.6040 -0.0288
    7CHTO  H111 2771   5.827   0.725   0.927  1.1632 -0.3953  0.6447
    7CHTO   C69 2772   5.920   0.684   1.158 -0.0250 -0.2297 -0.2171
    7CHTO  H126 2773   5.920   0.795   1.169 -0.3439 -0.3493  1.0387
    7CHTO   O41 2774   5.942   0.621   1.314 -0.2929  0.9244 -0.2167
    7CHTO   C64 2775   5.843   0.649   1.404 -0.2427  0.1469  0.7785
    7CHTO  H121 2776   5.841   0.759   1.413  2.5116  0.2589  0.2630
    7CHTO   C71 2777   5.891   0.582   1.540 -1.1633  0.1918  0.2612
    7CHTO   O47 2778   5.821   0.636   1.658 -0.7173  0.9028  0.6317
    7CHTO  H104 2779   5.893   0.639   1.717 -0.7311 -0.6193  0.7283
    7CHTO   O34 2780   6.048   0.658   1.093  0.5458  0.0536  0.0178
    7CHTO   C49 2781   6.167   0.581   1.053 -0.4407  0.3558 -0.0044
    7CHTO   H91 2782   6.204   0.641   0.970 -2.3174  1.5391 -0.0301
    7CHTO   C47 2783   6.120   0.437   1.011  0.3526 -0.9887  0.0450
    7CHTO   H89 2784   6.200   0.392   0.949 -2.2654 -1.8061 -2.8968
    7CHTO   O33 2785   6.004   0.456   0.927  0.4963  0.0488 -0.1998
    7CHTO   H70 2786   6.022   0.471   0.836 -0.2864 -1.6254 -0.6320
    7CHTO   C45 2787   6.090   0.346   1.152  0.1629  0.5561 -0.5879
    7CHTO   H87 2788   6.018   0.399   1.216  0.0623  1.0428 -1.0952
    7CHTO    N8 2789   6.032   0.214   1.117 -0.2404  0.2694 -0.2445
    7CHTO   H75 2790   6.047   0.185   1.014 -0.2967  2.4851 -0.8907
    7CHTO   H76 2791   5.929   0.206   1.146 -0.5171 -0.0905 -1.3022
    7CHTO   C43 2792   6.234   0.338   1.225 -0.9138 -0.2991  0.4997
    7CHTO   H85 2793   6.214   0.276   1.313 -1.2776 -1.9284 -0.7070
    7CHTO   O29 2794   6.277   0.469   1.260  0.1439  0.4805 -0.1875
    7CHTO   C50 2795   6.277   0.571   1.160 -0.4163 -0.5242  0.4224
    7CHTO   H92 2796   6.267   0.664   1.218 -0.6327  0.3179 -0.9458
    7CHTO   C54 2797   6.416   0.576   1.088  0.0949 -0.0115  0.3026
    7CHTO   O36 2798   6.515   0.616   1.175 -0.7769  0.1994 -0.2842
    7CHTO   H72 2799   6.584   0.647   1.120  0.3339  2.8414  2.4374
    7CHTO   O27 2800   6.335   0.268   1.147 -0.2120  0.0201 -0.1143
    7CHTO   C37 2801   6.414   0.154   1.178 -0.7014 -0.1286 -0.4557
    7CHTO   H79 2802   6.392   0.115   1.279 -0.8976 -1.1644 -0.8952
    7CHTO   C38 2803   6.386   0.023   1.090  0.0956 -0.1853  0.0268
    7CHTO   H80 2804   6.384   0.060   0.987 -0.2844 -1.7789 -0.5452
    7CHTO   O31 2805   6.251  -0.036   1.112 -0.3968  1.0512  0.7603
    7CHTO   H68 2806   6.262  -0.110   1.167  1.1993 -0.2361 -1.2382
    7CHTO   C39 2807   6.499  -0.085   1.098  0.2038 -0.1403 -0.4557
    7CHTO   H81 2808   6.484  -0.139   1.192  2.3955 -1.5538 -0.8678
    7CHTO    N7 2809   6.496  -0.189   0.992 -0.5427 -0.2029  0.6801
    7CHTO   H73 2810   6.402  -0.190   0.938 -1.1894  3.7017  1.6480
    7CHTO   H74 2811   6.502  -0.291   1.029  1.3360 -0.8535 -1.2640
    7CHTO   C40 2812   6.642  -0.012   1.110  0.8784  0.5926 -0.2796
    7CHTO   H82 2813   6.668   0.031   1.013 -2.1577 -0.1751 -1.4908
    7CHTO   O26 2814   6.640   0.089   1.220 -0.1535  0.0110  0.5629
    7CHTO   C41 2815   6.561   0.200   1.172 -0.5803  0.6024 -0.5269
    7CHTO   H83 2816   6.578   0.235   1.069 -0.0324 -0.8781 -0.9489
    7CHTO   C52 2817   6.590   0.308   1.275 -0.9924  0.1400  0.1547
    7CHTO   O35 2818   6.726   0.377   1.260  0.3815  0.2255  0.2080
    7CHTO   H71 2819   6.790   0.348   1.321 -0.2913 -0.4806  0.5737
    7CHTO   O28 2820   6.746  -0.101   1.151 -0.2406  0.0486  0.2251
    7CHTO   C42 2821   6.880  -0.110   1.097  0.4659 -0.4830  0.1379
    7CHTO   H84 2822   6.917  -0.181   1.171  0.0413 -1.0682 -0.2021
    7CHTO   C44 2823   6.968   0.020   1.097  0.0199 -0.4182 -1.3306
    7CHTO   H86 2824   6.914   0.103   1.051  1.5437  1.1123 -0.4200
    7CHTO   O32 2825   6.979   0.061   1.236 -0.6866 -0.5953  0.0174
    7CHTO   H69 2826   6.992   0.154   1.241 -0.8542 -0.5912  0.4455
    7CHTO   C48 2827   7.104   0.004   1.034  0.4724 -0.4905  0.7392
    7CHTO   H90 2828   7.157  -0.084   1.070 -0.7711 -1.2119  0.8152
    7CHTO    N9 2829   7.200   0.123   1.055  0.1886 -0.7453 -0.0617
    7CHTO   H77 2830   7.155   0.195   1.122  0.2429 -2.2412  1.5996
    7CHTO   H78 2831   7.218   0.169   0.959 -0.6851  1.2190  0.6716
    7CHTO   C51 2832   7.079  -0.034   0.884  0.3951 -0.0921 -0.0837
    7CHTO   H93 2833   7.012   0.035   0.833  0.0053 -1.4458 -1.4547
    7CHTO   O30 2834   7.021  -0.168   0.890  0.4490  0.4491  0.5329
    7CHTO   C46 2835   6.890  -0.180   0.960  0.1091 -0.0841 -0.2743
    7CHTO   H88 2836   6.820  -0.116   0.906 -0.4736  0.6900  1.3637
    7CHTO   C53 2837   6.840  -0.321   0.977 -0.1244  0.0954 -1.2772
    7CHTO   O72 2838   6.793  -0.385   0.858  0.1588 -0.5680  0.1989
    7CHTO  H199 2839   6.705  -0.413   0.874  0.5045 -0.2588  3.0105
    7CHTO   O22 2840   7.200  -0.038   0.811  0.1291  1.0778  0.0063
    7CHTO   C31 2841   7.197  -0.020   0.663  0.1096  0.4002 -0.8106
    7CHTO   H59 2842   7.300  -0.038   0.625  0.6897  2.0588 -0.0950
    7CHTO   C29 2843   7.105  -0.123   0.589  0.4303 -0.1514 -1.0059
    7CHTO   H57 2844   7.008  -0.123   0.642  0.0329  0.0485 -1.7236
    7CHTO   O21 2845   7.167  -0.250   0.613  0.1950  0.0141  0.4970
    7CHTO   H37 2846   7.109  -0.309   0.656  0.0175  0.0401  0.2976
    7CHTO   C27 2847   7.081  -0.088   0.437 -0.2437 -0.1609 -0.4290
    7CHTO   H55 2848   7.174  -0.094   0.378 -0.1609 -0.5103 -0.2635
    7CHTO    N5 2849   6.972  -0.172   0.366 -0.2608  0.0420 -0.1896
    7CHTO   H43 2850   7.005  -0.275   0.359 -1.7271 -0.4466 -0.0965
    7CHTO   H44 2851   6.874  -0.176   0.410 -1.0012 -1.4726 -1.9146
    7CHTO   C25 2852   7.049   0.066   0.419 -0.1866  0.3663 -0.0465
    7CHTO   H53 2853   6.959   0.092   0.476  0.3066  1.0076  0.4635
    7CHTO   O17 2854   7.157   0.137   0.482 -0.2469 -0.4873 -0.1815
    7CHTO   C32 2855   7.154   0.125   0.625  0.0775  0.8172  0.0325
    7CHTO   H60 2856   7.054   0.143   0.665 -0.0924 -1.8978  0.9259
    7CHTO   C36 2857   7.255   0.236   0.673  0.8303  0.0588  0.0026
    7CHTO   O25 2858   7.229   0.369   0.630 -0.4197  0.8089  0.6760
    7CHTO   H40 2859   7.254   0.425   0.701 -0.7779 -0.2951  1.6833
    7CHTO   O15 2860   7.040   0.110   0.255 -0.3412 -0.2986 -0.1037
    7CHTO   C19 2861   6.929   0.194   0.215  0.3906  0.7998  0.4208
    7CHTO   H47 2862   6.919   0.167   0.109 -3.2262 -0.2940  0.9473
    7CHTO   C20 2863   6.782   0.172   0.277  0.7204 -0.7953 -0.2357
    7CHTO   H48 2864   6.782   0.179   0.387  1.4086 -0.6613 -0.2429
    7CHTO   O19 2865   6.747   0.043   0.242  0.4446  0.9313 -0.0051
    7CHTO   H35 2866   6.680   0.017   0.303 -0.8394  1.9242 -0.9656
    7CHTO   C21 2867   6.674   0.271   0.226  0.4619 -1.1184  0.9796
    7CHTO   H49 2868   6.644   0.250   0.123 -2.3943 -1.3365  1.8032
    7CHTO    N4 2869   6.562   0.277   0.315  0.4443  0.2244  0.1601
    7CHTO   H41 2870   6.499   0.189   0.317  1.0851 -0.2258  0.9061
    7CHTO   H42 2871   6.509   0.364   0.278 -0.3600 -0.0942  0.5491
    7CHTO   C22 2872   6.736   0.414   0.209  0.4570 -0.2431 -0.0720
    7CHTO   H50 2873   6.740   0.453   0.311  0.2977 -0.0765 -0.1286
    7CHTO   O14 2874   6.865   0.428   0.154  0.4844 -0.3947  0.4041
    7CHTO   C23 2875   6.958   0.344   0.220  0.1443  0.1099 -0.3451
    7CHTO   H51 2876   6.942   0.383   0.322 -1.0730 -0.4025 -0.3281
    7CHTO   C34 2877   7.102   0.374   0.165  0.2119  0.2261  0.2915
    7CHTO   O23 2878   7.130   0.512   0.198 -0.6398  0.5379 -0.4796
    7CHTO   H38 2879   7.185   0.520   0.273  1.3964  2.1547 -2.0742
    7CHTO   O16 2880   6.649   0.493   0.125  0.0912 -0.2874  0.4942
    7CHTO   C24 2881   6.595   0.644   0.211 -0.1564 -0.4496  0.0972
    7CHTO   H52 2882   6.585   0.626   0.318 -2.3816 -1.5699 -0.2542
    7CHTO   C26 2883   6.453   0.676   0.149 -0.3613 -0.9781 -0.2550
    7CHTO   H54 2884   6.464   0.661   0.040 -0.6279  0.1592 -0.4387
    7CHTO   O20 2885   6.361   0.574   0.192  0.1008 -0.1281  0.1456
    7CHTO   H36 2886   6.389   0.490   0.161  1.0948  0.2726 -0.0564
    7CHTO   C30 2887   6.414   0.822   0.201 -0.1512 -0.6663 -0.1907
    7CHTO   H58 2888   6.406   0.823   0.311 -2.2393 -3.1634 -0.2825
    7CHTO    N6 2889   6.274   0.848   0.156 -0.2913  0.2392  0.2627
    7CHTO   H45 2890   6.270   0.891   0.057  0.5838 -0.0024  0.1173
    7CHTO   H46 2891   6.223   0.915   0.224 -1.1692  0.1472 -0.2958
    7CHTO   C33 2892   6.522   0.930   0.165  0.4672 -0.2633  0.3128
    7CHTO   H61 2893   6.540   0.919   0.057  0.0000 -3.2648  0.4974
    7CHTO   O18 2894   6.642   0.891   0.233  0.3752  0.0484  0.3041
    7CHTO   C28 2895   6.695   0.767   0.189  0.7068  0.2260 -0.0414
    7CHTO   H56 2896   6.711   0.776   0.082  1.1025  3.5716  0.2500
    7CHTO   C35 2897   6.829   0.744   0.255  0.1543  0.7478  0.5959
    7CHTO   O24 2898   6.819   0.738   0.398  0.0687  0.6418 -0.2637
    7CHTO   H39 2899   6.759   0.670   0.422 -0.2590  0.1639 -2.3361
    7CHTO    O9 2900   6.478   1.064   0.203  0.0841 -0.1929 -0.3976
    7CHTO   C13 2901   6.500   1.178   0.080  0.6013  0.4972  0.2930
    7CHTO   H26 2902   6.465   1.142  -0.019 -0.5643  1.6324  0.2872
    7CHTO   C11 2903   6.656   1.200   0.080  0.3273  0.3313 -0.7005
    7CHTO   H24 2904   6.700   1.107   0.042 -1.8498 -1.7863  1.8169
    7CHTO    O8 2905   6.713   1.223   0.210  0.6454  0.0780 -0.5011
    7CHTO    H3 2906   6.747   1.146   0.252 -0.9990 -0.8241 -0.7539
    7CHTO    C9 2907   6.690   1.318  -0.014  0.3827 -0.1585  0.0865
    7CHTO   H22 2908   6.643   1.290  -0.110  0.1435 -0.8420  0.3975
    7CHTO    N2 2909   6.836   1.337  -0.046 -0.2309 -0.0102  0.6610
    7CHTO   H10 2910   6.852   1.287  -0.140 -0.5133  1.4454 -0.1611
    7CHTO   H11 2911   6.861   1.441  -0.058 -0.3284 -0.1482 -0.7978
    7CHTO    C7 2912   6.609   1.447   0.034  0.0053  0.1444 -0.1497
    7CHTO   H20 2913   6.628   1.511  -0.054 -0.2917  0.4625  0.0164
    7CHTO    O4 2914   6.468   1.425   0.049  0.2155 -0.0585 -0.0742
    7CHTO   C14 2915   6.415   1.308   0.110 -0.0587  0.8612 -0.2489
    7CHTO   H27 2916   6.317   1.296   0.059  1.2115 -1.4618 -2.2330
    7CHTO   C18 2917   6.394   1.334   0.262  0.6776  0.5027  0.6890
    7CHTO   O13 2918   6.304   1.439   0.289 -0.0003 -0.2750 -0.1517
    7CHTO    H7 2919   6.268   1.430   0.375 -0.5034 -0.2112 -0.3533
    7CHTO    O2 2920   6.669   1.508   0.171 -0.5331  0.9621 -0.1243
    7CHTO    C1 2921   6.607   1.633   0.219 -0.5655 -0.7358  1.0671
    7CHTO   H14 2922   6.508   1.607   0.260 -0.7144 -2.3633 -0.2511
    7CHTO    C2 2923   6.585   1.744   0.109 -0.2763  0.2332 -0.3926
    7CHTO   H15 2924   6.681   1.760   0.058 -0.9543  0.0705 -1.7246
    7CHTO    O6 2925   6.481   1.706   0.017  0.3732 -0.2223 -0.6432
    7CHTO    H1 2926   6.464   1.777  -0.043 -1.6796  1.6626  2.0663
    7CHTO    C3 2927   6.549   1.887   0.178 -0.0421  0.2119 -0.0684
    7CHTO   H16 2928   6.440   1.877   0.193  0.2283 -1.2971  0.9667
    7CHTO    N1 2929   6.567   2.006   0.080  0.0735 -0.4840 -0.0938
    7CHTO    H8 2930   6.539   1.970  -0.018 -1.4153 -1.7950  0.7837
    7CHTO    H9 2931   6.668   2.042   0.089  0.6241 -2.3480  1.5533
    7CHTO    C4 2932   6.619   1.914   0.317  0.5179  0.5484 -0.4773
    7CHTO   H17 2933   6.720   1.951   0.303  2.1477 -1.9073  3.6679
    7CHTO    O1 2934   6.613   1.797   0.401 -1.0427  1.0385  0.4365
    7CHTO    C5 2935   6.691   1.693   0.337  0.5528  0.0172  0.0165
    7CHTO   H18 2936   6.789   1.728   0.307  1.7636 -1.2148  2.3793
    7CHTO   C16 2937   6.713   1.599   0.456 -0.1641 -0.0288  1.0864
    7CHTO   O11 2938   6.764   1.663   0.573 -0.0386  0.5506  0.0606
    7CHTO    H5 2939   6.775   1.592   0.634 -0.9671  0.1168 -0.2687
    7CHTO    O3 2940   6.555   2.024   0.391  0.2683 -0.1841  0.2227
    7CHTO    C6 2941   6.638   2.075   0.502 -0.0386  0.2229 -0.1850
    7CHTO   H19 2942   6.728   2.017   0.522  0.7055  0.5955 -2.3591
    7CHTO    C8 2943   6.702   2.218   0.472 -0.2547 -0.3782 -0.2333
    7CHTO   H21 2944   6.620   2.286   0.452 -0.0424  0.1830  0.7784
    7CHTO    O7 2945   6.783   2.195   0.357 -0.2886 -0.1761 -0.4311
    7CHTO    H2 2946   6.728   2.170   0.286 -0.6459  1.9101 -0.9479
    7CHTO   C12 2947   6.781   2.284   0.596  0.0480  0.3176  0.9493
    7CHTO   H25 2948   6.870   2.224   0.623  1.7513  1.5457 -1.7667
    7CHTO    N3 2949   6.841   2.421   0.560 -0.8583  0.7119 -0.6151
    7CHTO   H12 2950   6.948   2.419   0.546 -0.2781  1.2278  3.1404
    7CHTO   H13 2951   6.807   2.501   0.625  1.1913  1.8128 -0.8589
    7CHTO   C15 2952   6.689   2.282   0.716  0.1057  0.1516  0.6303
    7CHTO   H28 2953   6.614   2.361   0.720  0.0160  0.0397  1.2374
    7CHTO   O10 2954   6.772   2.283   0.840  0.6591 -0.3658  0.5702
    7CHTO    H4 2955   6.782   2.371   0.871  1.9525 -0.1361 -0.4490
    7CHTO    O5 2956   6.637   2.149   0.735  0.3177 -0.4547 -0.1768
    7CHTO   C10 2957   6.557   2.085   0.637 -0.2293  0.3296 -0.0265
    7CHTO   H23 2958   6.463   2.137   0.617 -0.6148 -0.3620 -0.0427
    7CHTO   C17 2959   6.508   1.952   0.696 -0.0552  0.8287  0.8991
    7CHTO   O12 2960   6.412   1.956   0.798  0.0444 -0.5039  0.4316
    7CHTO    H6 2961   6.348   1.897   0.763  1.6381 -1.6424 -0.6382
    8CHTO  H203 2962   7.372   7.492   1.715 -0.7056  0.1997 -3.1299
    8CHTO   O82 2963   7.342   7.577   1.743  0.2856 -0.6971  0.9136
    8CHTO  C123 2964   7.254   7.634   1.639 -0.8568 -0.4111  0.5868
    8CHTO  H227 2965   7.305   7.621   1.543  0.5905  1.7193  1.0445
    8CHTO   O77 2966   7.126   7.555   1.663  0.5871  0.1454 -0.0483
    8CHTO  C118 2967   7.014   7.594   1.583 -0.7300 -0.1198 -0.0952
    8CHTO  H222 2968   7.036   7.589   1.475 -2.7480 -0.5266 -0.5059
    8CHTO  C125 2969   6.880   7.502   1.615 -0.3355  0.4091 -0.5333
    8CHTO   O84 2970   6.868   7.474   1.750  0.4132  0.3060 -0.4034
    8CHTO  H205 2971   6.776   7.475   1.768  0.2347 -0.7423 -1.2257
    8CHTO  C114 2972   6.987   7.743   1.621 -0.7124 -0.1275  0.6546
    8CHTO  H218 2973   6.958   7.742   1.727 -0.6243  2.3302  0.7424
    8CHTO  C116 2974   7.105   7.841   1.592 -0.3051 -0.4701 -0.3175
    8CHTO  H220 2975   7.123   7.857   1.484 -1.4240  0.7132 -0.3358
    8CHTO   O79 2976   7.082   7.976   1.640 -0.5203  0.5732 -0.1716
    8CHTO  H201 2977   7.051   7.974   1.728  0.5676 -2.1010  0.1711
    8CHTO  C120 2978   7.232   7.790   1.667  0.1832 -0.5113  0.1287
    8CHTO  H224 2979   7.213   7.800   1.776  0.7281 -0.1312  0.1927
    8CHTO   N21 2980   7.354   7.865   1.629  0.1081  0.8096  0.3003
    8CHTO  H211 2981   7.377   7.832   1.529 -1.4108  2.3699 -0.5855
    8CHTO  H212 2982   7.330   7.970   1.635  0.5157  0.9022  0.2888
    8CHTO   O75 2983   6.870   7.775   1.542  0.3296 -0.1585  0.5404
    8CHTO  C112 2984   6.727   7.846   1.627  0.0706 -1.1033  0.2182
    8CHTO  H216 2985   6.752   7.952   1.640 -2.1136 -0.6036  0.5937
    8CHTO   O73 2986   6.711   7.781   1.748  0.1491  0.4827  0.5857
    8CHTO  C113 2987   6.619   7.841   1.834  0.4185  0.0002 -0.0782
    8CHTO  H217 2988   6.640   7.950   1.833  1.4799 -0.1935 -0.7338
    8CHTO  C124 2989   6.645   7.775   1.973 -0.1364 -0.1937  0.2632
    8CHTO   O83 2990   6.574   7.819   2.090 -0.1833 -0.4878 -0.7442
    8CHTO  H204 2991   6.576   7.748   2.152  1.7961 -0.1386 -0.3570
    8CHTO  C109 2992   6.472   7.824   1.784  0.1346  0.5297 -0.3803
    8CHTO  H213 2993   6.450   7.716   1.789 -0.0896  0.5840 -0.1590
    8CHTO  C110 2994   6.469   7.871   1.632 -0.7706 -0.1885  0.6078
    8CHTO  H214 2995   6.461   7.980   1.635  1.0878  0.0291 -1.2543
    8CHTO   O78 2996   6.347   7.823   1.569 -0.8226 -0.0279 -0.1344
    8CHTO  H200 2997   6.339   7.861   1.483  0.1481 -2.9472 -1.5872
    8CHTO  C111 2998   6.595   7.837   1.546  0.4034  0.5350  0.3289
    8CHTO  H215 2999   6.588   7.730   1.521 -1.3384  1.0044 -1.3244
    8CHTO   N19 3000   6.602   7.915   1.414  0.2658  0.0414  0.3453
    8CHTO  H207 3001   6.627   8.019   1.424 -1.3450  0.4790 -0.0868
    8CHTO  H208 3002   6.518   7.905   1.347  1.5800 -1.6212 -1.1166
    8CHTO   O74 3003   6.378   7.900   1.873 -0.2799  0.7179  0.2706
    8CHTO  C115 3004   6.241   7.877   1.860  1.0855 -0.6236 -0.0854
    8CHTO  H219 3005   6.221   7.778   1.818 -0.4854 -0.9143  1.3056
    8CHTO   O76 3006   6.165   7.880   2.007  0.3246 -0.3784 -0.7789
    8CHTO  C122 3007   6.169   8.006   2.073  0.3963 -0.1856 -0.1532
    8CHTO  H226 3008   6.266   8.032   2.116 -0.1368  1.3441  0.1712
    8CHTO  C126 3009   6.068   8.005   2.202  0.2929  0.2798  0.1465
    8CHTO   O85 3010   6.086   7.907   2.305 -0.3041 -0.4315  0.1059
    8CHTO  H206 3011   6.081   7.819   2.270  0.2685 -1.5944  2.8533
    8CHTO  C121 3012   6.137   8.134   1.985  0.4551 -0.4015 -0.4910
    8CHTO  H225 3013   6.028   8.151   1.980  0.6617  1.0558 -0.3199
    8CHTO   O81 3014   6.184   8.255   2.049 -0.3079  0.1296 -0.5460
    8CHTO  H202 3015   6.277   8.255   2.041 -0.1877  1.7203  0.7468
    8CHTO  C119 3016   6.191   8.123   1.840 -0.0376 -0.1263  0.1939
    8CHTO  H223 3017   6.129   8.198   1.790 -1.4309 -0.0149  2.0319
    8CHTO  C117 3018   6.166   7.991   1.769 -0.3616 -0.0733 -1.3318
    8CHTO  H221 3019   6.212   7.978   1.671 -1.3606 -1.3093 -1.6497
    8CHTO   N20 3020   6.021   7.972   1.738 -0.1425  0.1902 -0.1406
    8CHTO  H209 3021   6.022   7.904   1.655 -1.9002 -0.6224  0.4960
    8CHTO  H210 3022   5.976   8.066   1.711 -0.0148  0.3321  0.1297
    8CHTO   O80 3023   6.340   8.176   1.817  0.1721  0.1646  0.2878
    8CHTO  C103 3024   6.368   8.336   1.757  0.2037  0.0934 -0.3222
    8CHTO  H190 3025   6.273   8.390   1.749  0.6506  0.9920  0.4124
    8CHTO  C101 3026   6.469   8.421   1.827  0.6749  0.3094 -0.6647
    8CHTO  H188 3027   6.567   8.376   1.844  1.0433  1.5931  0.7083
    8CHTO   O68 3028   6.416   8.438   1.977 -0.0555  0.2922  0.5205
    8CHTO  H168 3029   6.325   8.463   1.980 -0.5553 -1.4254  0.4350
    8CHTO   C99 3030   6.492   8.559   1.754  0.1191 -0.0258  0.5907
    8CHTO  H186 3031   6.399   8.619   1.748 -1.0074 -1.8667 -1.3573
    8CHTO   N17 3032   6.588   8.653   1.824 -0.7138 -0.4684  0.3310
    8CHTO  H174 3033   6.551   8.672   1.924 -1.4478  0.2477 -0.0753
    8CHTO  H175 3034   6.687   8.611   1.826 -0.0416  1.0672 -0.2878
    8CHTO   C97 3035   6.532   8.531   1.609  0.4528  0.1843 -1.1822
    8CHTO  H184 3036   6.629   8.481   1.604  0.7441  0.4865  0.8411
    8CHTO   O64 3037   6.429   8.456   1.543 -0.0692  0.1089 -0.2511
    8CHTO  C104 3038   6.420   8.321   1.600 -0.0808 -0.7627  0.3921
    8CHTO  H191 3039   6.512   8.263   1.604 -0.6342 -1.7053 -0.4018
    8CHTO  C108 3040   6.330   8.236   1.509  0.2010  0.0382  0.1218
    8CHTO   O71 3041   6.388   8.214   1.374 -0.6892  0.3198  0.2008
    8CHTO  H171 3042   6.414   8.298   1.340  0.6571  0.1476  0.7461
    8CHTO   O62 3043   6.540   8.652   1.527  0.7193 -0.5014  0.0340
    8CHTO   C91 3044   6.640   8.661   1.422  0.3653 -0.0776 -0.2653
    8CHTO  H178 3045   6.684   8.561   1.418 -0.3455 -0.5002  1.8130
    8CHTO   C92 3046   6.752   8.751   1.479 -0.5675 -0.2861 -0.4492
    8CHTO  H179 3047   6.781   8.709   1.576 -1.2223 -1.2867 -0.6786
    8CHTO   O66 3048   6.872   8.724   1.407  0.3841  0.0345 -0.5360
    8CHTO  H166 3049   6.939   8.776   1.446 -1.2991  1.3976  0.6060
    8CHTO   C93 3050   6.712   8.907   1.479 -0.5133 -0.1306 -0.1963
    8CHTO  H180 3051   6.802   8.970   1.473 -2.5400  2.8440 -0.2228
    8CHTO   N16 3052   6.657   8.945   1.610  0.2350 -0.2581  0.0690
    8CHTO  H172 3053   6.554   8.912   1.614 -0.2717  1.2962 -0.1830
    8CHTO  H173 3054   6.671   9.050   1.626 -1.7743  0.1975 -0.9934
    8CHTO   C94 3055   6.623   8.941   1.350 -0.0703 -0.6005 -0.4509
    8CHTO  H181 3056   6.517   8.936   1.374 -0.1552  0.8086 -0.5287
    8CHTO   O61 3057   6.643   8.845   1.243  0.0547 -0.4489  0.1097
    8CHTO   C95 3058   6.603   8.711   1.275  0.7487  0.4537  0.0190
    8CHTO  H182 3059   6.495   8.705   1.261  0.6816  2.9918 -0.7404
    8CHTO  C106 3060   6.676   8.624   1.165 -0.4837 -0.1605  0.1936
    8CHTO   O69 3061   6.642   8.484   1.163  0.5721 -0.1183  0.4472
    8CHTO  H169 3062   6.673   8.446   1.083 -0.8247 -2.5532  1.0151
    8CHTO   O63 3063   6.655   9.094   1.296  0.1519 -0.5686 -0.8595
    8CHTO   C96 3064   6.587   9.118   1.145  0.7199  0.0820 -0.2908
    8CHTO  H183 3065   6.528   9.029   1.121 -3.5101  2.4049  0.9466
    8CHTO   C98 3066   6.693   9.155   1.036 -0.0636  1.0224 -0.3993
    8CHTO  H185 3067   6.763   9.229   1.077 -0.4663  0.1432  1.9935
    8CHTO   O67 3068   6.776   9.038   1.017  0.0667  0.1087 -0.4881
    8CHTO  H167 3069   6.859   9.068   0.983  0.6803  0.7088  1.4956
    8CHTO  C102 3070   6.621   9.210   0.898 -0.2531  0.1220  0.7445
    8CHTO  H189 3071   6.574   9.123   0.849  1.3373 -0.2198 -0.2368
    8CHTO   N18 3072   6.707   9.265   0.790 -0.0096 -0.2483 -0.0027
    8CHTO  H176 3073   6.760   9.352   0.825  0.6368 -0.1395 -1.2230
    8CHTO  H177 3074   6.773   9.185   0.762 -0.1289 -0.0144 -0.9804
    8CHTO  C105 3075   6.505   9.306   0.931 -0.5149 -0.5989  0.1034
    8CHTO  H192 3076   6.542   9.407   0.950 -2.3329  0.1969 -0.4247
    8CHTO   O65 3077   6.426   9.257   1.040 -0.1844 -0.0281 -0.1291
    8CHTO  C100 3078   6.490   9.238   1.165  0.1399  0.9948 -0.0219
    8CHTO  H187 3079   6.540   9.332   1.193 -0.1268  0.7091  1.4828
    8CHTO  C107 3080   6.376   9.204   1.268  0.4426  0.2444 -0.3424
    8CHTO   O70 3081   6.300   9.084   1.275 -0.0638  0.0106 -0.1320
    8CHTO  H170 3082   6.337   9.024   1.338 -1.8002 -2.4187 -1.3492
    8CHTO   O57 3083   6.403   9.306   0.812  1.0320  0.0095 -0.2437
    8CHTO   C85 3084   6.333   9.431   0.783  0.0475 -0.4391 -0.0479
    8CHTO  H157 3085   6.409   9.503   0.746 -1.1649  2.4805  2.8900
    8CHTO   C83 3086   6.261   9.485   0.914 -0.3542 -0.4770 -0.0358
    8CHTO  H155 3087   6.335   9.513   0.988  0.0520  2.0278 -1.3342
    8CHTO   O56 3088   6.184   9.385   0.989  0.0259  0.0998  0.0621
    8CHTO  H135 3089   6.091   9.391   1.004  0.3938 -0.4232  2.7876
    8CHTO   C81 3090   6.176   9.613   0.871 -0.1739  0.5844 -1.5329
    8CHTO  H153 3091   6.241   9.677   0.811  0.3174 -0.8114 -2.5082
    8CHTO   N14 3092   6.126   9.691   0.988  0.0141  0.0618 -0.1180
    8CHTO  H141 3093   6.137   9.644   1.083  3.7170  0.5909 -0.1822
    8CHTO  H142 3094   6.175   9.786   0.985 -0.3162  0.2316 -0.1817
    8CHTO   C79 3095   6.057   9.558   0.775  0.5545 -0.5926  0.4772
    8CHTO  H151 3096   5.999   9.644   0.742 -1.4148 -1.7149  0.9948
    8CHTO   O52 3097   6.126   9.507   0.650  0.1982  0.3912  0.1430
    8CHTO   C86 3098   6.223   9.407   0.672  0.1515  0.4772  0.5507
    8CHTO  H158 3099   6.170   9.315   0.703  1.5217 -0.5061  0.0653
    8CHTO   C90 3100   6.282   9.369   0.534 -0.5820 -0.6760 -0.2688
    8CHTO   O60 3101   6.344   9.485   0.478  0.0121  0.5850 -0.0163
    8CHTO  H138 3102   6.409   9.523   0.533 -0.4787  0.8797  0.3586
    8CHTO   O50 3103   5.973   9.456   0.827  0.4354  0.2433 -0.3552
    8CHTO   C73 3104   5.830   9.409   0.822 -0.7167 -0.3298 -0.0004
    8CHTO  H145 3105   5.802   9.396   0.716  1.6336 -0.3643 -0.6589
    8CHTO   C74 3106   5.728   9.515   0.878  0.0228  0.4596  0.0472
    8CHTO  H146 3107   5.756   9.598   0.812 -0.1097 -0.9652 -1.8500
    8CHTO   O54 3108   5.590   9.469   0.850  0.0908  0.2331 -0.4591
    8CHTO  H133 3109   5.570   9.498   0.763  0.2047 -3.1407 -1.6765
    8CHTO   C75 3110   5.763   9.540   1.030  0.6579 -0.4331  0.1253
    8CHTO  H147 3111   5.864   9.582   1.038  1.0365 -1.5576  1.6266
    8CHTO   N13 3112   5.684   9.655   1.083 -0.0514  0.5916  0.4015
    8CHTO  H139 3113   5.699   9.674   1.189 -1.1324 -1.6034  0.9769
    8CHTO  H140 3114   5.687   9.746   1.025  1.0811  0.9630  1.0276
    8CHTO   C76 3115   5.745   9.411   1.107 -0.2337 -0.4960  0.2562
    8CHTO  H148 3116   5.641   9.380   1.102 -0.5160  0.2178  1.5321
    8CHTO   O49 3117   5.822   9.302   1.049 -0.0803  0.0568 -0.1658
    8CHTO   C77 3118   5.807   9.278   0.906  0.3857 -0.1735 -0.4457
    8CHTO  H149 3119   5.705   9.240   0.896  0.6346 -0.7786 -0.7043
    8CHTO   C88 3120   5.905   9.159   0.862  0.4258  0.0813  0.5785
    8CHTO   O58 3121   5.876   9.042   0.932 -0.1044 -0.1425 -0.1341
    8CHTO  H136 3122   5.853   8.968   0.878  1.5193 -1.6073  1.0980
    8CHTO   O51 3123   5.796   9.437   1.254 -0.1816 -0.4017  0.2064
    8CHTO   C78 3124   5.752   9.324   1.354 -0.1449  0.0779 -0.3737
    8CHTO  H150 3125   5.690   9.250   1.300 -1.1845 -0.0431  0.9406
    8CHTO   C80 3126   5.671   9.383   1.463  0.0757  0.6203 -0.0141
    8CHTO  H152 3127   5.725   9.465   1.515 -1.0136  2.6978 -2.0812
    8CHTO   O55 3128   5.556   9.450   1.398  0.2404  0.5183 -0.5673
    8CHTO  H134 3129   5.494   9.489   1.457  1.6688  0.5569  0.9459
    8CHTO   C84 3130   5.622   9.271   1.569 -0.3464  0.2689 -0.3789
    8CHTO  H156 3131   5.564   9.203   1.506 -1.2708 -1.5889  2.4214
    8CHTO   N15 3132   5.543   9.326   1.678  0.2051  0.2323  0.4774
    8CHTO  H143 3133   5.535   9.245   1.748 -0.7858 -0.3411 -0.2940
    8CHTO  H144 3134   5.591   9.412   1.720  2.4673 -0.3459 -0.8404
    8CHTO   C87 3135   5.746   9.193   1.620 -0.1145 -0.5155 -0.1743
    8CHTO  H159 3136   5.808   9.266   1.672 -0.0178 -0.2542 -0.6560
    8CHTO   O53 3137   5.817   9.138   1.499 -0.3561  0.1735  0.6231
    8CHTO   C82 3138   5.868   9.234   1.410  0.1143 -0.0783  0.5094
    8CHTO  H154 3139   5.937   9.298   1.465  0.7303 -0.7861  0.5599
    8CHTO   C89 3140   5.949   9.161   1.301  0.2427 -0.3544 -0.2383
    8CHTO   O59 3141   5.871   9.073   1.223  1.0475  0.0334  0.6837
    8CHTO  H137 3142   5.927   9.012   1.178  1.6146  0.7650  0.3846
    8CHTO   O45 3143   5.704   9.058   1.718 -0.5353 -0.1572  0.0610
    8CHTO   C67 3144   5.798   9.019   1.822  0.3713 -0.5694 -0.1861
    8CHTO  H124 3145   5.743   8.938   1.869 -0.4616 -0.3663 -0.7970
    8CHTO   C65 3146   5.933   8.958   1.768  0.1697 -0.2347  0.5143
    8CHTO  H122 3147   5.931   8.957   1.659 -0.5282  3.9349  0.4363
    8CHTO   O44 3148   5.951   8.827   1.822 -0.4783 -0.1699  0.1183
    8CHTO  H102 3149   5.880   8.808   1.880  2.3291 -0.7112  3.5866
    8CHTO   C63 3150   6.055   9.051   1.800 -1.1219  0.3986 -0.9862
    8CHTO  H120 3151   6.038   9.144   1.746  2.1830  1.0258 -1.0267
    8CHTO   N11 3152   6.184   8.998   1.729  1.1040 -0.0284 -0.0051
    8CHTO  H108 3153   6.178   8.899   1.689  0.5777 -0.0888  0.2132
    8CHTO  H109 3154   6.274   9.026   1.780 -0.5430  1.8186  2.0155
    8CHTO   C61 3155   6.060   9.072   1.959 -0.0575  1.2598  0.2555
    8CHTO  H118 3156   6.128   9.156   1.982  0.7517  1.1203 -1.5956
    8CHTO   O40 3157   5.938   9.094   2.021  0.4685 -0.4524 -0.0656
    8CHTO   C68 3158   5.820   9.131   1.927  0.0581 -0.0576  0.3530
    8CHTO  H125 3159   5.849   9.227   1.880  3.4745 -1.0259  0.4058
    8CHTO   C72 3160   5.693   9.158   2.008 -0.1002  0.4386  0.4998
    8CHTO   O48 3161   5.650   9.047   2.083 -0.0755  0.4330  0.6277
    8CHTO  H105 3162   5.587   8.996   2.037  1.6485  0.0643 -1.4066
    8CHTO   O38 3163   6.110   8.955   2.026  0.0734  0.1814  0.2818
    8CHTO   C55 3164   6.233   8.948   2.099 -0.4995  0.3553  0.4033
    8CHTO  H112 3165   6.310   9.016   2.060 -1.5641  2.2833  1.6140
    8CHTO   C56 3166   6.278   8.799   2.096  0.4008  0.3679  1.0086
    8CHTO  H113 3167   6.265   8.766   1.992 -0.6038  1.2816  0.8315
    8CHTO   O42 3168   6.421   8.800   2.116 -0.3059  0.3048  0.2674
    8CHTO  H100 3169   6.428   8.812   2.209 -0.9664  1.4687  0.1867
    8CHTO   C57 3170   6.199   8.701   2.197  0.1973 -0.5561  0.5968
    8CHTO  H114 3171   6.278   8.678   2.269 -1.3328 -1.2550  2.0786
    8CHTO   N10 3172   6.159   8.578   2.133  0.2887 -0.1729  0.3024
    8CHTO  H106 3173   6.176   8.491   2.194  0.9727 -1.4945 -1.7068
    8CHTO  H107 3174   6.052   8.583   2.125  0.2752  1.4595  1.3059
    8CHTO   C58 3175   6.077   8.782   2.258 -0.4558 -0.0337 -0.4695
    8CHTO  H115 3176   6.012   8.811   2.174 -1.4897 -2.5017 -0.5639
    8CHTO   O37 3177   6.118   8.900   2.328 -0.2274  0.2974  0.3066
    8CHTO   C59 3178   6.196   8.992   2.250 -0.6219 -0.1579  0.7261
    8CHTO  H116 3179   6.140   9.085   2.249  2.0184  1.4528 -0.0544
    8CHTO   C70 3180   6.326   9.017   2.325  0.2156 -0.0688 -0.4609
    8CHTO   O46 3181   6.290   9.096   2.439  0.6017 -0.0764  0.5118
    8CHTO  H103 3182   6.273   9.184   2.413 -0.8403 -1.4934 -3.9716
    8CHTO   O39 3183   6.004   8.697   2.373 -0.4060  0.4770  0.2708
    8CHTO   C60 3184   5.869   8.719   2.381 -0.2379  0.6760  1.4208
    8CHTO  H117 3185   5.842   8.816   2.339 -1.7442 -0.0764  0.6150
    8CHTO   C62 3186   5.787   8.614   2.294  0.3159 -0.1509  0.3445
    8CHTO  H119 3187   5.824   8.614   2.190 -0.4351  1.8381  0.0373
    8CHTO   O43 3188   5.817   8.483   2.347 -0.4654  0.4275  0.0328
    8CHTO  H101 3189   5.810   8.478   2.440  1.6728 -0.5758  0.1609
    8CHTO   C66 3190   5.627   8.658   2.296  0.1549 -0.4736 -0.7742
    8CHTO  H123 3191   5.622   8.758   2.252  3.6977 -0.4280 -1.1702
    8CHTO   N12 3192   5.542   8.581   2.214  0.6125 -0.1880 -0.0623
    8CHTO  H110 3193   5.560   8.583   2.107  0.7382  0.6308 -0.0289
    8CHTO  H111 3194   5.523   8.482   2.253 -1.2491 -0.4472 -1.5493
    8CHTO   C69 3195   5.579   8.671   2.450  0.1274 -0.3110 -0.2486
    8CHTO  H126 3196   5.586   8.576   2.507 -0.3008  0.7886  1.6962
    8CHTO   O41 3197   5.675   8.776   2.526 -0.0594  0.6140 -0.6215
    8CHTO   C64 3198   5.826   8.727   2.525 -0.4721 -0.8894  0.7585
    8CHTO  H121 3199   5.824   8.623   2.565 -3.4711 -0.3840  2.0501
    8CHTO   C71 3200   5.914   8.822   2.610  0.4758  0.1798 -0.0236
    8CHTO   O47 3201   5.921   8.965   2.568 -0.6047  0.6844  0.2834
    8CHTO  H104 3202   6.010   8.993   2.555 -0.5956  0.5411  0.0496
    8CHTO   O34 3203   5.430   8.729   2.462 -0.3619 -0.3972 -0.2349
    8CHTO   C49 3204   5.335   8.871   2.470 -0.5741 -0.3612 -0.0191
    8CHTO   H91 3205   5.337   8.922   2.567  1.4309  2.5790 -1.5191
    8CHTO   C47 3206   5.190   8.825   2.439  0.6362 -0.5903 -0.1516
    8CHTO   H89 3207   5.130   8.917   2.456  3.0104  1.0596 -0.5678
    8CHTO   O33 3208   5.157   8.726   2.543 -0.4074 -0.0832 -0.5974
    8CHTO   H70 3209   5.088   8.751   2.602  1.0992  1.1838  0.6999
    8CHTO   C45 3210   5.187   8.772   2.288  0.6488  0.7588 -0.4784
    8CHTO   H87 3211   5.255   8.689   2.265  0.8286  0.2401  1.7928
    8CHTO    N8 3212   5.046   8.726   2.270  0.5018  0.4695  0.4963
    8CHTO   H75 3213   5.053   8.622   2.240  2.0336  0.9168 -0.7744
    8CHTO   H76 3214   5.005   8.784   2.189  2.3431  0.2304 -0.6220
    8CHTO   C43 3215   5.232   8.884   2.191  0.0477  0.5372 -0.1731
    8CHTO   H85 3216   5.235   8.839   2.092 -0.7002 -0.9305  0.4472
    8CHTO   O29 3217   5.358   8.936   2.227 -0.2290 -0.1194 -0.0052
    8CHTO   C50 3218   5.381   8.972   2.364 -0.3289 -0.0062 -0.8545
    8CHTO   H92 3219   5.491   8.977   2.370 -0.3888 -0.1470  0.4629
    8CHTO   C54 3220   5.342   9.115   2.400 -0.4922 -0.1427  0.2728
    8CHTO   O36 3221   5.444   9.197   2.341  0.0909  0.2564 -0.5682
    8CHTO   H72 3222   5.444   9.278   2.388  0.5052  0.8992 -1.6548
    8CHTO   O27 3223   5.138   8.987   2.184  0.5445  0.5541 -0.1893
    8CHTO   C37 3224   5.067   9.064   2.088  0.0994 -0.0781 -0.0181
    8CHTO   H79 3225   5.085   9.028   1.986  0.0188  0.5871 -0.2722
    8CHTO   C38 3226   4.920   9.063   2.116  0.5127  0.2931  0.4837
    8CHTO   H80 3227   4.901   9.080   2.223 -3.6941  1.6354 -0.3950
    8CHTO   O31 3228   4.869   8.930   2.083 -0.2928  0.4897 -0.1950
    8CHTO   H68 3229   4.778   8.936   2.061 -0.3089  0.3489 -0.1699
    8CHTO   C39 3230   4.836   9.172   2.035 -0.6844 -0.4449  0.2427
    8CHTO   H81 3231   4.817   9.143   1.931 -1.8865  1.6002 -0.1308
    8CHTO    N7 3232   4.696   9.187   2.079 -0.9706 -0.1807  0.3329
    8CHTO   H73 3233   4.672   9.293   2.078  0.3873  0.1478  0.8095
    8CHTO   H74 3234   4.697   9.146   2.179 -0.3524 -0.6169  0.1434
    8CHTO   C40 3235   4.904   9.313   2.025  0.1546  0.1977 -0.6865
    8CHTO   H82 3236   4.889   9.366   2.119 -1.9514 -1.4746 -0.0489
    8CHTO   O26 3237   5.042   9.296   1.999  0.0300 -0.5338 -0.1271
    8CHTO   C41 3238   5.113   9.220   2.094 -0.1452  0.4222  0.4662
    8CHTO   H83 3239   5.093   9.267   2.192 -0.1999  1.0278  0.1656
    8CHTO   C52 3240   5.260   9.243   2.050  0.0736  0.8226 -0.6460
    8CHTO   O35 3241   5.304   9.373   2.090  0.1689  0.1454  0.2492
    8CHTO   H71 3242   5.270   9.441   2.035  1.0592 -0.7010 -1.3621
    8CHTO   O28 3243   4.859   9.394   1.913 -0.2746 -0.1618  0.3836
    8CHTO   C42 3244   4.919   9.439   1.781 -0.0071  0.8546  0.3328
    8CHTO   H84 3245   5.024   9.461   1.802 -0.2437  1.4696  0.9047
    8CHTO   C44 3246   4.845   9.569   1.737 -0.1092 -0.0403  0.3945
    8CHTO   H86 3247   4.737   9.554   1.731  0.1013 -0.6635 -3.2124
    8CHTO   O32 3248   4.875   9.664   1.844  0.3420 -0.4736 -0.3662
    8CHTO   H69 3249   4.967   9.683   1.850  0.0544  0.4915  1.0743
    8CHTO   C48 3250   4.904   9.621   1.596  0.0023  0.3838  0.1375
    8CHTO   H90 3251   5.005   9.660   1.604 -0.1561  1.0220 -0.8839
    8CHTO    N9 3252   4.813   9.737   1.548 -0.1342  0.0789 -0.0556
    8CHTO   H77 3253   4.833   9.836   1.585  0.1556 -0.5165  1.4044
    8CHTO   H78 3254   4.805   9.731   1.440  0.9114  0.3237 -0.1544
    8CHTO   C51 3255   4.913   9.504   1.495  0.2075  0.6546 -0.6519
    8CHTO   H93 3256   4.812   9.470   1.473 -0.4698  1.0222  1.7744
    8CHTO   O30 3257   4.991   9.401   1.558  0.0570  0.2937  0.6692
    8CHTO   C46 3258   4.923   9.340   1.666  0.3787 -0.0360  0.3456
    8CHTO   H88 3259   4.828   9.308   1.624  0.1093 -0.5354  1.3172
    8CHTO   C53 3260   5.017   9.218   1.693  0.2927 -0.3645  0.9168
    8CHTO   O72 3261   5.016   9.136   1.581 -0.1203 -0.7636 -0.2402
    8CHTO  H199 3262   5.081   9.069   1.584  1.2209  0.5480  0.5584
    8CHTO   O22 3263   4.989   9.544   1.378 -0.2187  0.0390  0.5638
    8CHTO   C31 3264   5.042   9.463   1.270  0.1745  0.1051  0.2242
    8CHTO   H59 3265   5.062   9.534   1.188 -0.7114 -0.3473 -0.3976
    8CHTO   C29 3266   5.179   9.400   1.307  0.0088  0.0325  0.4325
    8CHTO   H57 3267   5.154   9.325   1.384 -0.6612  1.2852  1.4726
    8CHTO   O21 3268   5.265   9.505   1.352 -0.1757  0.6697 -0.4112
    8CHTO   H37 3269   5.208   9.569   1.389 -0.1913  0.4945 -0.1288
    8CHTO   C27 3270   5.234   9.323   1.184 -0.6469  0.5491  0.7431
    8CHTO   H55 3271   5.252   9.395   1.103 -0.6641  0.1053  0.3430
    8CHTO    N5 3272   5.363   9.247   1.209 -0.5701 -0.3463  0.0153
    8CHTO   H43 3273   5.332   9.168   1.277 -0.4789 -0.9847 -0.6825
    8CHTO   H44 3274   5.407   9.211   1.118  0.6338 -1.1272  0.8984
    8CHTO   C25 3275   5.125   9.225   1.137 -1.3074 -0.2577  0.2122
    8CHTO   H53 3276   5.109   9.150   1.216 -2.0288 -0.6194 -0.2688
    8CHTO   O17 3277   5.000   9.291   1.104 -0.0423  0.7315 -0.2532
    8CHTO   C32 3278   4.936   9.364   1.213 -0.1873 -0.0805 -0.7213
    8CHTO   H60 3279   4.898   9.304   1.296 -1.5878 -1.0207 -2.0098
    8CHTO   C36 3280   4.819   9.442   1.150 -0.3065  0.3397  0.2939
    8CHTO   O25 3281   4.715   9.348   1.118 -0.3537 -0.1471  0.1555
    8CHTO   H40 3282   4.673   9.375   1.038  1.5416 -0.7894 -1.0877
    8CHTO   O15 3283   5.158   9.153   1.009  0.0339  0.1439 -0.3916
    8CHTO   C19 3284   5.233   9.133   0.883 -0.0940  0.5182 -0.0319
    8CHTO   H47 3285   5.174   9.053   0.836  1.8562 -1.0222  0.0902
    8CHTO   C20 3286   5.235   9.247   0.789 -0.1590 -0.4081  0.7870
    8CHTO   H48 3287   5.293   9.332   0.830  1.7077 -0.7258 -1.1010
    8CHTO   O19 3288   5.099   9.292   0.775 -0.5141 -0.3027  0.4522
    8CHTO   H35 3289   5.079   9.374   0.817  0.7912 -0.4161  1.3019
    8CHTO   C21 3290   5.300   9.202   0.650  0.1223  0.3218 -0.3671
    8CHTO   H49 3291   5.235   9.122   0.614 -1.3057  0.3274  2.1388
    8CHTO    N4 3292   5.298   9.313   0.548 -0.2065  0.4801 -0.1064
    8CHTO   H41 3293   5.381   9.382   0.553  0.4007 -0.3234  1.4315
    8CHTO   H42 3294   5.263   9.285   0.450 -0.5354 -1.8059  0.6259
    8CHTO   C22 3295   5.442   9.151   0.680 -0.5836  0.4949  0.0178
    8CHTO   H50 3296   5.500   9.235   0.720 -1.4369  0.3629  1.5746
    8CHTO   O14 3297   5.428   9.041   0.773 -0.9287  0.1324 -0.0057
    8CHTO   C23 3298   5.370   9.075   0.900  0.2441  0.1823 -0.2136
    8CHTO   H51 3299   5.442   9.143   0.950  0.7941  0.4108 -1.3063
    8CHTO   C34 3300   5.350   8.944   0.972  0.0154 -0.4966 -0.2095
    8CHTO   O23 3301   5.476   8.893   1.021 -0.3371  0.0240 -0.5776
    8CHTO   H38 3302   5.473   8.869   1.111  1.0032 -0.1181 -0.5602
    8CHTO   O16 3303   5.505   9.098   0.565  0.1691 -0.2432  0.0120
    8CHTO   C24 3304   5.666   9.116   0.581  0.0009  0.4809 -0.1855
    8CHTO   H52 3305   5.695   9.147   0.682 -1.0960  1.9666 -0.2968
    8CHTO   C26 3306   5.717   9.214   0.481  0.0036 -0.9381 -0.0008
    8CHTO   H54 3307   5.684   9.192   0.377 -0.8068  1.3716 -0.2708
    8CHTO   O20 3308   5.660   9.343   0.509 -0.0259 -0.2443  0.2330
    8CHTO   H36 3309   5.567   9.345   0.499  0.0850 -0.7513 -1.0982
    8CHTO   C30 3310   5.874   9.217   0.483  0.5496  0.2199  0.2331
    8CHTO   H58 3311   5.908   9.243   0.584 -0.3614  0.8230  0.3895
    8CHTO    N6 3312   5.925   9.316   0.380  0.4797 -1.0040  0.2987
    8CHTO   H45 3313   6.033   9.307   0.384  0.5028 -0.5387  0.8770
    8CHTO   H46 3314   5.900   9.408   0.431  0.7342 -0.5715 -0.3523
    8CHTO   C33 3315   5.925   9.073   0.453  0.4942  0.4378  0.2199
    8CHTO   H61 3316   5.882   9.038   0.358  1.5436 -1.9588  0.6052
    8CHTO   O18 3317   5.875   8.982   0.557  0.4422 -0.2540  0.1239
    8CHTO   C28 3318   5.727   8.977   0.559  0.6656 -0.4415  0.5014
    8CHTO   H56 3319   5.685   8.937   0.467 -0.1931  1.0136  0.2426
    8CHTO   C35 3320   5.680   8.871   0.659 -0.0266  0.2553 -0.4736
    8CHTO   O24 3321   5.707   8.884   0.797 -0.7127 -0.1369  0.0271
    8CHTO   H39 3322   5.695   8.804   0.845  3.9270 -2.3150 -2.1209
    8CHTO    O9 3323   6.066   9.059   0.437 -0.7350 -0.2628  0.1076
    8CHTO   C13 3324   6.094   8.913   0.357 -0.0113 -0.5373 -0.6286
    8CHTO   H26 3325   6.006   8.849   0.375  0.1948 -2.0439 -4.4434
    8CHTO   C11 3326   6.225   8.852   0.412 -0.1343 -0.5243 -0.4237
    8CHTO   H24 3327   6.200   8.828   0.517 -1.4559  0.3475 -0.5332
    8CHTO    O8 3328   6.334   8.950   0.406  0.1095 -0.3470 -0.4765
    8CHTO    H3 3329   6.333   8.981   0.494 -1.9558  0.6294 -0.8201
    8CHTO    C9 3330   6.261   8.718   0.341  0.9256  0.2685 -0.3370
    8CHTO   H22 3331   6.170   8.658   0.354  2.3378 -1.6198  1.1236
    8CHTO    N2 3332   6.365   8.639   0.420 -0.0955  0.2639 -0.0303
    8CHTO   H10 3333   6.382   8.537   0.389 -1.2332  0.5948 -1.8195
    8CHTO   H11 3334   6.337   8.634   0.524 -0.6706  0.4063 -0.1754
    8CHTO    C7 3335   6.282   8.744   0.193  1.1426 -0.1846 -0.9076
    8CHTO   H20 3336   6.296   8.643   0.149  0.3236 -1.1460  0.9872
    8CHTO    O4 3337   6.183   8.826   0.130  0.5796 -0.3564  0.1085
    8CHTO   C14 3338   6.106   8.928   0.199  0.3656  0.2803 -0.3038
    8CHTO   H27 3339   6.006   8.925   0.149 -0.6588  0.2620  1.6863
    8CHTO   C18 3340   6.173   9.053   0.162  0.4789 -0.4726  0.2214
    8CHTO   O13 3341   6.165   9.082   0.024 -0.4519  0.3014  0.1050
    8CHTO    H7 3342   6.230   9.145   0.001 -1.0262  1.0094  0.3890
    8CHTO    O2 3343   6.442   8.832   0.167  0.4956  0.4979  0.2521
    8CHTO    C1 3344   6.467   8.879   0.033 -0.9129 -0.0506  0.3579
    8CHTO   H14 3345   6.394   8.958   0.007 -0.4836 -0.0496 -0.8745
    8CHTO    C2 3346   6.471   8.768  -0.076  0.4969  0.2249 -0.0809
    8CHTO   H15 3347   6.527   8.687  -0.027  1.8783  1.0808 -0.2191
    8CHTO    O6 3348   6.341   8.722  -0.117  0.0126  0.5996  0.1640
    8CHTO    H1 3349   6.274   8.785  -0.140 -1.5805 -1.0667  0.1351
    8CHTO    C3 3350   6.548   8.797  -0.211  0.2350 -0.4722 -0.5933
    8CHTO   H16 3351   6.469   8.848  -0.267 -0.4270 -0.1093  0.6478
    8CHTO    N1 3352   6.597   8.669  -0.280  1.2487 -0.7225 -0.2872
    8CHTO    H8 3353   6.704   8.670  -0.295  1.3885  1.7486  0.6604
    8CHTO    H9 3354   6.547   8.656  -0.374  1.4970  0.5296 -0.6008
    8CHTO    C4 3355   6.663   8.898  -0.196  0.0680 -0.9255 -0.2614
    8CHTO   H17 3356   6.748   8.844  -0.155  0.8054  0.2832 -0.1732
    8CHTO    O1 3357   6.639   9.005  -0.101  0.5245  0.0386 -0.4103
    8CHTO    C5 3358   6.605   8.950   0.028 -0.7797 -0.5087  0.0426
    8CHTO   H18 3359   6.674   8.874   0.065  0.0138  0.1301 -0.1244
    8CHTO   C16 3360   6.609   9.066   0.130  0.1179 -0.4759  0.0729
    8CHTO   O11 3361   6.753   9.091   0.160  0.2840 -0.0898 -0.3167
    8CHTO    H5 3362   6.790   9.143   0.092 -2.2992  0.8589 -1.0707
    8CHTO    O3 3363   6.691   8.960  -0.326 -0.1453 -0.2948 -0.1275
    8CHTO    C6 3364   6.829   8.930  -0.378  0.2645  0.0769  0.0506
    8CHTO   H19 3365   6.870   8.840  -0.333 -2.2583 -0.0735  2.1406
    8CHTO    C8 3366   6.828   8.907  -0.532 -0.1564 -0.2833  0.4010
    8CHTO   H21 3367   6.793   8.999  -0.579 -2.4396 -0.2389  2.0556
    8CHTO    O7 3368   6.731   8.808  -0.564  0.4975 -0.2491  0.3451
    8CHTO    H2 3369   6.648   8.852  -0.568 -0.0609 -1.4516 -1.9129
    8CHTO   C12 3370   6.970   8.867  -0.576 -0.4228  0.3081  0.0389
    8CHTO   H25 3371   6.995   8.779  -0.515  1.1756 -0.6659 -1.9501
    8CHTO    N3 3372   6.988   8.839  -0.725  0.1676  0.4671  0.2102
    8CHTO   H12 3373   7.093   8.819  -0.741  0.6626  2.0605  1.4184
    8CHTO   H13 3374   6.944   8.913  -0.791 -0.2092  1.4767  1.5783
    8CHTO   C15 3375   7.066   8.985  -0.534  0.7499 -0.0801  1.1923
    8CHTO   H28 3376   7.038   9.078  -0.583  2.0328  0.2934  1.1594
    8CHTO   O10 3377   7.222   8.955  -0.559  0.8846 -0.1659  0.5989
    8CHTO    H4 3378   7.236   8.953  -0.651 -2.0368 -0.0601  0.0972
    8CHTO    O5 3379   7.062   8.999  -0.395  0.1693 -0.0662  0.1889
    8CHTO   C10 3380   6.936   9.049  -0.343  0.4870 -0.2700  0.1916
    8CHTO   H23 3381   6.918   9.147  -0.386 -2.4571  0.4193  2.7785
    8CHTO   C17 3382   6.952   9.079  -0.194  0.0701  0.2170  0.3310
    8CHTO   O12 3383   6.845   9.165  -0.151  0.1951 -0.0508 -0.1879
    8CHTO    H6 3384   6.817   9.123  -0.072 -0.5955 -1.3943 -1.1611
    9CHTO  H203 3385   6.756   3.082   1.480  0.0575  2.5863  0.4045
    9CHTO   O82 3386   6.671   3.102   1.445 -0.5133 -0.2067  0.0468
    9CHTO  C123 3387   6.638   3.053   1.312 -0.1448  0.8973  0.1922
    9CHTO  H227 3388   6.604   2.948   1.317 -0.3898  1.0120  0.8862
    9CHTO   O77 3389   6.532   3.133   1.281  0.4257 -0.1329 -0.4823
    9CHTO  C118 3390   6.460   3.092   1.162  0.2588 -0.6002 -0.2108
    9CHTO  H222 3391   6.433   2.990   1.194 -0.1063  0.1937  2.1302
    9CHTO  C125 3392   6.338   3.181   1.158 -0.2310 -0.0660 -0.1138
    9CHTO   O84 3393   6.249   3.166   1.270 -0.3578 -0.2002  0.1726
    9CHTO  H205 3394   6.163   3.178   1.234  0.2442  0.4188 -1.0731
    9CHTO  C114 3395   6.551   3.110   1.040 -0.1498 -0.1643  0.7598
    9CHTO  H218 3396   6.566   3.218   1.034 -0.5002 -0.1700 -0.6108
    9CHTO  C116 3397   6.700   3.051   1.056  0.8021  0.3387  0.0672
    9CHTO  H220 3398   6.696   2.943   1.029  1.3142  0.1674  0.6631
    9CHTO   O79 3399   6.796   3.109   0.965  0.0911  0.4042 -0.2009
    9CHTO  H201 3400   6.871   3.053   0.964 -1.6560 -1.9768 -0.6998
    9CHTO  C120 3401   6.751   3.066   1.204  0.1085 -0.1805 -0.9171
    9CHTO  H224 3402   6.796   3.167   1.208 -2.6985  1.0784  0.7376
    9CHTO   N21 3403   6.862   2.967   1.218 -0.1029 -0.0141 -0.4347
    9CHTO  H211 3404   6.862   2.921   1.316 -1.8282 -0.7606 -0.7639
    9CHTO  H212 3405   6.950   3.027   1.203  0.0423 -0.4535 -1.3799
    9CHTO   O75 3406   6.476   3.071   0.926 -0.6403 -0.2070  0.0489
    9CHTO  C112 3407   6.532   3.137   0.769 -0.0260  0.8592 -0.1202
    9CHTO  H216 3408   6.629   3.086   0.753  0.1631  0.9073  0.7933
    9CHTO   O73 3409   6.548   3.275   0.788  0.0435 -0.2024 -0.3664
    9CHTO  C113 3410   6.622   3.325   0.672  0.8209 -0.8376  0.0996
    9CHTO  H217 3411   6.724   3.281   0.674  1.5662  0.8643  0.2244
    9CHTO  C124 3412   6.641   3.475   0.714 -0.4147 -1.0792  0.0222
    9CHTO   O83 3413   6.518   3.551   0.742 -0.2960 -0.4197  0.1854
    9CHTO  H204 3414   6.541   3.641   0.754  0.7021 -0.5729 -0.4644
    9CHTO  C109 3415   6.553   3.307   0.533  0.4393  0.1478 -0.5191
    9CHTO  H213 3416   6.473   3.383   0.530 -1.6301 -1.9862 -0.5250
    9CHTO  C110 3417   6.491   3.169   0.525 -0.4009  0.6867 -0.1523
    9CHTO  H214 3418   6.565   3.101   0.482 -0.7753 -0.4568  0.9775
    9CHTO   O78 3419   6.390   3.179   0.428 -0.3598 -0.2668  0.1642
    9CHTO  H200 3420   6.343   3.101   0.404 -2.5032  1.5903 -1.9369
    9CHTO  C111 3421   6.432   3.104   0.654  0.2581  0.3852  0.4131
    9CHTO  H215 3422   6.337   3.149   0.687 -0.2163 -0.0861 -0.2958
    9CHTO   N19 3423   6.405   2.957   0.644  0.2167  0.1503  0.7089
    9CHTO  H207 3424   6.336   2.939   0.725  0.8958  2.0027  1.7344
    9CHTO  H208 3425   6.486   2.900   0.687  0.2845  0.9230  1.6313
    9CHTO   O74 3426   6.644   3.336   0.424  0.0980 -0.2262 -0.1482
    9CHTO  C115 3427   6.767   3.220   0.407  0.2226  0.2202 -0.0520
    9CHTO  H219 3428   6.763   3.147   0.487  0.9424  1.1931  0.8770
    9CHTO   O76 3429   6.747   3.121   0.249 -0.2429 -0.1395 -0.2092
    9CHTO  C122 3430   6.776   3.190   0.125 -0.0327  0.1386  0.0820
    9CHTO  H226 3431   6.697   3.262   0.107 -1.5779 -1.6021 -0.2398
    9CHTO  C126 3432   6.774   3.094   0.005  0.3084  0.1660 -0.7462
    9CHTO   O85 3433   6.645   3.033  -0.019  0.3365 -0.0303  0.6859
    9CHTO  H206 3434   6.579   3.100  -0.012 -0.1431 -0.3701 -0.3668
    9CHTO  C121 3435   6.917   3.253   0.146  0.0333  0.4949  0.5147
    9CHTO  H225 3436   6.989   3.171   0.166  0.8152  1.1105  0.2470
    9CHTO   O81 3437   6.966   3.299   0.021 -0.1124 -0.3536 -0.2141
    9CHTO  H202 3438   6.914   3.372  -0.007 -1.0060 -0.6979  0.5100
    9CHTO  C119 3439   6.914   3.356   0.263  0.8413  0.2791 -0.3362
    9CHTO  H223 3440   7.012   3.403   0.257  0.2146  1.5064 -1.1862
    9CHTO  C117 3441   6.902   3.292   0.406 -0.3359 -1.0220 -0.3886
    9CHTO  H221 3442   6.893   3.362   0.490  0.4705 -1.0806 -0.2463
    9CHTO   N20 3443   7.018   3.202   0.442  0.6749  0.2052 -0.2536
    9CHTO  H209 3444   7.064   3.226   0.536  1.3459 -2.1772  0.0417
    9CHTO  H210 3445   7.083   3.178   0.359 -1.4190 -0.1750 -1.8444
    9CHTO   O80 3446   6.816   3.486   0.231  0.7455 -0.0996 -0.0435
    9CHTO  C103 3447   6.862   3.627   0.296  0.2971  0.0642 -0.5081
    9CHTO  H190 3448   6.879   3.622   0.403  0.5623 -1.5800 -0.6139
    9CHTO  C101 3449   6.983   3.717   0.237 -0.1052  0.3480 -0.0258
    9CHTO  H188 3450   6.970   3.713   0.129 -0.2446 -2.5259  0.0587
    9CHTO   O68 3451   7.115   3.646   0.275  0.2928 -0.0998  0.2834
    9CHTO  H168 3452   7.192   3.674   0.230 -1.5895  3.2278 -1.0845
    9CHTO   C99 3453   6.983   3.870   0.283 -0.3555 -0.8212  0.6067
    9CHTO  H186 3454   6.995   3.874   0.394 -1.3075 -2.8348  0.8149
    9CHTO   N17 3455   7.090   3.958   0.236  0.1147  0.0827 -0.4511
    9CHTO  H174 3456   7.045   4.056   0.248 -2.9976 -1.3854  0.2518
    9CHTO  H175 3457   7.123   3.930   0.137  0.3912 -0.1568 -0.2923
    9CHTO   C97 3458   6.842   3.925   0.254 -0.5235  0.0868  0.2210
    9CHTO  H184 3459   6.824   3.912   0.146  2.3318  1.8625 -0.5421
    9CHTO   O64 3460   6.755   3.843   0.332 -0.0080 -0.2906 -0.3279
    9CHTO  C104 3461   6.738   3.717   0.274  0.3720  0.7490  0.0472
    9CHTO  H191 3462   6.716   3.729   0.167  1.3158  0.1796 -0.2144
    9CHTO  C108 3463   6.613   3.662   0.348  0.3385  0.1330 -0.3701
    9CHTO   O71 3464   6.503   3.748   0.321  0.1737  0.4981  0.0380
    9CHTO  H171 3465   6.517   3.830   0.364  2.9333  0.5403 -0.8511
    9CHTO   O62 3466   6.813   4.052   0.304 -0.1626  0.1507  0.7283
    9CHTO   C91 3467   6.722   4.143   0.223  0.0790 -0.0650 -0.7758
    9CHTO  H178 3468   6.747   4.123   0.119  1.8098 -1.0680 -0.1868
    9CHTO   C92 3469   6.759   4.286   0.259 -0.5757 -0.1898 -0.3172
    9CHTO  H179 3470   6.868   4.298   0.268 -0.7368 -0.0732  1.8961
    9CHTO   O66 3471   6.718   4.365   0.146 -0.0285  0.3960 -0.4970
    9CHTO  H166 3472   6.784   4.410   0.096  0.1075  0.5519 -0.1765
    9CHTO   C93 3473   6.694   4.333   0.391 -0.6432 -0.3121 -0.4151
    9CHTO  H180 3474   6.715   4.441   0.392 -1.0072 -0.2293 -1.1414
    9CHTO   N16 3475   6.735   4.279   0.525  0.0464 -0.0905  0.3599
    9CHTO  H172 3476   6.714   4.341   0.612  1.1321  0.1095  0.4838
    9CHTO  H173 3477   6.830   4.229   0.530  0.3916  0.4669 -0.3815
    9CHTO   C94 3478   6.542   4.323   0.382 -0.5294  0.7378 -0.4346
    9CHTO  H181 3479   6.499   4.269   0.466  0.2840 -0.6784 -0.9081
    9CHTO   O61 3480   6.495   4.243   0.272  0.2597  0.3979 -0.0647
    9CHTO   C95 3481   6.563   4.116   0.247  0.2209  0.6876  0.2192
    9CHTO  H182 3482   6.553   4.060   0.340  0.9233  0.2355  0.0300
    9CHTO  C106 3483   6.489   4.052   0.126 -0.3619  0.0640 -0.2278
    9CHTO   O69 3484   6.544   3.930   0.078 -0.3868 -0.4551  0.6058
    9CHTO  H169 3485   6.473   3.908   0.021 -0.7962  2.1536  0.0071
    9CHTO   O63 3486   6.465   4.477   0.380 -0.7918  0.6127  0.2043
    9CHTO   C96 3487   6.369   4.517   0.480 -0.0106  0.1705  0.1448
    9CHTO  H183 3488   6.362   4.443   0.559 -3.1602  0.8502  0.5680
    9CHTO   C98 3489   6.233   4.520   0.416 -0.0661 -0.3503 -0.7377
    9CHTO  H185 3490   6.240   4.583   0.325  0.5738 -0.7576 -0.9671
    9CHTO   O67 3491   6.212   4.385   0.368 -0.4025 -0.3584 -0.1744
    9CHTO  H167 3492   6.140   4.360   0.313 -0.2350  0.5575 -0.8299
    9CHTO  C102 3493   6.124   4.571   0.526 -0.6897 -0.0412 -0.6470
    9CHTO  H189 3494   6.128   4.503   0.612  0.3377  0.4581 -0.2842
    9CHTO   N18 3495   5.985   4.576   0.474  0.6165  0.7337  0.0768
    9CHTO  H176 3496   5.929   4.650   0.530 -2.1490 -2.2474  1.4140
    9CHTO  H177 3497   5.990   4.616   0.374 -1.8704  0.3186 -0.2474
    9CHTO  C105 3498   6.170   4.703   0.598 -0.3418  0.1672  0.6399
    9CHTO  H192 3499   6.155   4.785   0.528 -0.3913 -0.9010 -0.6245
    9CHTO   O65 3500   6.306   4.691   0.643  0.3992  0.3671 -0.5160
    9CHTO  C100 3501   6.403   4.656   0.546  0.4387 -0.5140 -0.2612
    9CHTO  H187 3502   6.407   4.732   0.467 -1.5584 -1.6290 -1.4844
    9CHTO  C107 3503   6.532   4.655   0.630  0.5845 -0.2419 -0.2163
    9CHTO   O70 3504   6.550   4.539   0.718  0.3085 -0.1061  0.9947
    9CHTO  H170 3505   6.482   4.526   0.781 -0.4583  1.8573  0.6028
    9CHTO   O57 3506   6.073   4.724   0.716 -0.1210  0.3138 -0.4283
    9CHTO   C85 3507   6.009   4.849   0.733 -0.6441  0.1784 -0.5191
    9CHTO  H157 3508   5.960   4.867   0.635  2.7191  1.8460 -1.9671
    9CHTO   C83 3509   6.121   4.959   0.756  0.0209  0.4729 -0.0459
    9CHTO  H155 3510   6.169   4.980   0.660 -0.3596  1.9268  0.0619
    9CHTO   O56 3511   6.222   4.907   0.846 -0.0452 -0.2215 -0.2802
    9CHTO  H135 3512   6.261   4.827   0.816 -0.2573 -0.5415  0.2733
    9CHTO   C81 3513   6.047   5.084   0.805  0.5467  0.1577 -0.4935
    9CHTO  H153 3514   5.975   5.108   0.726 -0.7889  0.5415  0.8073
    9CHTO   N14 3515   6.131   5.209   0.818  0.4298  0.6292 -0.6418
    9CHTO  H141 3516   6.145   5.230   0.922  0.9293 -0.9021 -0.3776
    9CHTO  H142 3517   6.225   5.187   0.772 -0.8076  0.8671 -3.3786
    9CHTO   C79 3518   5.962   5.065   0.933 -0.2603  0.5157 -0.1268
    9CHTO  H151 3519   5.921   5.162   0.960 -2.9550 -0.3690 -0.9210
    9CHTO   O52 3520   5.852   4.977   0.896 -0.9727  0.3372 -0.7313
    9CHTO   C86 3521   5.902   4.850   0.852  0.1725 -0.1788  0.2379
    9CHTO  H158 3522   5.943   4.800   0.942 -2.7505  1.5496  2.6525
    9CHTO   C90 3523   5.775   4.776   0.816  0.4596 -0.3914  0.3403
    9CHTO   O60 3524   5.796   4.634   0.827  0.0959 -0.6446  0.4897
    9CHTO  H138 3525   5.837   4.612   0.909  1.4782  0.1925  0.0444
    9CHTO   O50 3526   6.030   5.007   1.046  0.4721 -0.2187 -0.1648
    9CHTO   C73 3527   6.039   5.057   1.179 -0.0704 -0.3405  1.0436
    9CHTO  H145 3528   5.936   5.070   1.214 -0.9223  0.8739 -1.7418
    9CHTO   C74 3529   6.118   5.195   1.204 -0.1854  0.4930 -0.7831
    9CHTO  H146 3530   6.066   5.266   1.137 -0.7586  1.0253  0.2194
    9CHTO   O54 3531   6.112   5.238   1.339  0.4411  0.1087 -0.1955
    9CHTO  H133 3532   6.026   5.265   1.365  0.1226  0.0307 -1.1470
    9CHTO   C75 3533   6.271   5.170   1.164  0.6964  0.4759 -0.0378
    9CHTO  H147 3534   6.271   5.135   1.060  0.0579 -2.1242  0.8155
    9CHTO   N13 3535   6.354   5.288   1.155 -0.0518 -0.5928 -0.0182
    9CHTO  H139 3536   6.349   5.335   1.253 -0.8996 -1.7650  0.5205
    9CHTO  H140 3537   6.323   5.355   1.076  0.7664  0.1199  0.2578
    9CHTO   C76 3538   6.335   5.061   1.253 -0.0551  0.5121 -0.2070
    9CHTO  H148 3539   6.334   5.093   1.358 -0.3638 -1.7487  0.5140
    9CHTO   O49 3540   6.253   4.943   1.257 -0.1921 -0.3526  0.2348
    9CHTO   C77 3541   6.109   4.952   1.280  0.6819 -0.5956 -0.2940
    9CHTO  H149 3542   6.100   4.992   1.381  0.7785 -2.0570  0.2948
    9CHTO   C88 3543   6.045   4.816   1.272  0.2583 -0.1047  0.2524
    9CHTO   O58 3544   5.886   4.827   1.278  0.5364 -0.1313  0.0714
    9CHTO  H136 3545   5.853   4.868   1.200  0.3095  1.1966  0.8579
    9CHTO   O51 3546   6.478   5.001   1.197 -0.1728  0.4284 -0.4804
    9CHTO   C78 3547   6.581   4.965   1.308 -0.4309 -0.0686 -0.4560
    9CHTO  H150 3548   6.535   4.945   1.407 -0.9643 -0.1509 -0.7208
    9CHTO   C80 3549   6.684   5.083   1.332 -0.1831  0.1540  0.2558
    9CHTO  H152 3550   6.735   5.113   1.239  3.1537 -0.4140  1.8456
    9CHTO   O55 3551   6.604   5.190   1.382  0.5976 -0.1454 -0.6084
    9CHTO  H134 3552   6.538   5.214   1.320  1.5878  1.4377 -1.0929
    9CHTO   C84 3553   6.790   5.048   1.445  0.9217 -0.3847 -0.5157
    9CHTO  H156 3554   6.750   5.050   1.546  0.4795  0.0929 -0.6973
    9CHTO   N15 3555   6.905   5.149   1.457 -0.2123 -0.3141  0.0115
    9CHTO  H143 3556   6.860   5.241   1.489  1.5802  0.8744 -0.7855
    9CHTO  H144 3557   6.986   5.124   1.523  1.4922 -0.2126 -1.9946
    9CHTO   C87 3558   6.845   4.901   1.421 -0.4921  0.2717 -0.0135
    9CHTO  H159 3559   6.912   4.904   1.335 -1.3309  0.0031 -0.6772
    9CHTO   O53 3560   6.730   4.800   1.391  0.1309 -0.2299  0.5017
    9CHTO   C82 3561   6.659   4.840   1.271  0.4060 -1.0461 -0.1580
    9CHTO  H154 3562   6.728   4.854   1.188 -0.2962 -1.1940 -0.7746
    9CHTO   C89 3563   6.557   4.723   1.235  0.2594  0.2291 -0.5160
    9CHTO   O59 3564   6.476   4.751   1.124 -0.0506 -0.0289  0.1396
    9CHTO  H137 3565   6.395   4.798   1.133  0.8840  1.8569 -0.9034
    9CHTO   O45 3566   6.928   4.840   1.556  0.1892  0.0164  0.3406
    9CHTO   C67 3567   7.034   4.752   1.536 -0.0369 -0.0833  0.3880
    9CHTO  H124 3568   7.003   4.674   1.466 -0.8763 -1.2235  1.9782
    9CHTO   C65 3569   7.164   4.820   1.486  0.2745 -0.2987 -0.6540
    9CHTO  H122 3570   7.169   4.918   1.533 -2.9611 -1.3477  2.0571
    9CHTO   O44 3571   7.161   4.830   1.348 -0.0620  0.1367  0.0245
    9CHTO  H102 3572   7.106   4.903   1.329  0.2252  0.7311  1.4320
    9CHTO   C63 3573   7.293   4.747   1.544 -0.3198 -0.1496 -0.7669
    9CHTO  H120 3574   7.300   4.774   1.650  0.4852  1.3196 -1.1787
    9CHTO   N11 3575   7.425   4.793   1.491 -0.7266 -0.5917 -0.8607
    9CHTO  H108 3576   7.425   4.797   1.384 -0.5444  1.9772 -0.7884
    9CHTO  H109 3577   7.493   4.716   1.524 -0.6409 -0.4773 -0.7724
    9CHTO   C61 3578   7.264   4.587   1.545 -0.7231 -0.8620 -0.6342
    9CHTO  H118 3579   7.355   4.546   1.593  0.4956  0.1578 -2.0294
    9CHTO   O40 3580   7.150   4.560   1.639 -0.2755  0.2330  0.1057
    9CHTO   C68 3581   7.062   4.676   1.669 -0.0222  0.6165  0.5429
    9CHTO  H125 3582   7.114   4.747   1.736  1.0174  0.5584 -0.1815
    9CHTO   C72 3583   6.932   4.631   1.743 -0.0029 -0.6928 -0.6026
    9CHTO   O48 3584   6.844   4.549   1.664  0.2111 -0.5315 -0.7683
    9CHTO  H105 3585   6.775   4.526   1.723  0.3559  0.2171 -0.2912
    9CHTO   O38 3586   7.236   4.532   1.412  0.0605 -0.1194  0.5557
    9CHTO   C55 3587   7.305   4.411   1.369 -0.4042 -0.7820 -0.3363
    9CHTO  H112 3588   7.344   4.361   1.459  1.0198 -1.2136 -1.1745
    9CHTO   C56 3589   7.427   4.458   1.272 -0.3604 -0.7435  0.9943
    9CHTO  H113 3590   7.374   4.524   1.201 -1.0146 -1.0270  1.2067
    9CHTO   O42 3591   7.526   4.538   1.339 -0.3244  0.1983  0.3537
    9CHTO  H100 3592   7.559   4.482   1.406 -0.0258  2.8839  2.4936
    9CHTO   C57 3593   7.495   4.338   1.198  0.4195 -0.1545 -0.1994
    9CHTO  H114 3594   7.547   4.300   1.286 -0.8051  1.6352  1.3416
    9CHTO   N10 3595   7.583   4.391   1.091 -0.7146  0.3531  0.2761
    9CHTO  H106 3596   7.628   4.484   1.122  1.5389 -0.6055 -0.0276
    9CHTO  H107 3597   7.661   4.316   1.080 -0.1930  0.7773  1.0296
    9CHTO   C58 3598   7.382   4.241   1.143 -0.0154  0.1975  0.3080
    9CHTO  H115 3599   7.323   4.290   1.062 -0.8077 -3.2536 -1.3100
    9CHTO   O37 3600   7.289   4.201   1.244  0.1020  0.3476 -1.0260
    9CHTO   C59 3601   7.211   4.314   1.300  0.7368 -0.1610  1.0903
    9CHTO  H116 3602   7.157   4.364   1.220  0.6938  1.1230  1.9094
    9CHTO   C70 3603   7.105   4.269   1.403  0.3905 -0.2600  0.2893
    9CHTO   O46 3604   7.001   4.194   1.341 -0.6186  0.0543  0.4049
    9CHTO  H103 3605   6.952   4.252   1.285  0.4213  0.7341  0.1905
    9CHTO   O39 3606   7.439   4.116   1.082 -0.4482 -0.2533 -0.4883
    9CHTO   C60 3607   7.342   4.023   1.031  0.2476 -0.1641  0.0849
    9CHTO  H117 3608   7.242   4.032   1.074 -0.1672  0.8543 -1.0530
    9CHTO   C62 3609   7.334   4.054   0.875  0.0208 -0.2265 -0.2176
    9CHTO  H119 3610   7.305   4.161   0.862  1.6990 -0.0078 -2.3803
    9CHTO   O43 3611   7.467   4.034   0.820  0.0522 -0.2547  0.4092
    9CHTO  H101 3612   7.520   4.107   0.844 -0.0007 -0.8773  2.5164
    9CHTO   C66 3613   7.223   3.967   0.813 -0.6661  0.0939 -0.2633
    9CHTO  H123 3614   7.130   3.985   0.867 -0.3321  1.1202 -0.0352
    9CHTO   N12 3615   7.204   3.995   0.673 -0.5816 -1.0251 -0.1349
    9CHTO  H110 3616   7.111   3.959   0.633 -0.5977 -1.0885 -0.0400
    9CHTO  H111 3617   7.283   3.940   0.624  0.6584 -0.1467  0.8486
    9CHTO   C69 3618   7.249   3.816   0.840  0.1899 -0.4484  0.2499
    9CHTO  H126 3619   7.340   3.792   0.780 -0.8386 -0.4864 -1.3173
    9CHTO   O41 3620   7.277   3.782   1.002  0.0539  0.0766  0.6036
    9CHTO   C64 3621   7.383   3.878   1.056 -0.5982 -0.5260 -0.4410
    9CHTO  H121 3622   7.478   3.855   1.003 -0.1288  2.3578 -0.9447
    9CHTO   C71 3623   7.404   3.868   1.212  0.2464 -0.4099  0.7095
    9CHTO   O47 3624   7.284   3.858   1.289 -0.2815  0.6598 -0.4144
    9CHTO  H104 3625   7.229   3.931   1.266  1.6353  1.6109 -2.1935
    9CHTO   O34 3626   7.144   3.738   0.784 -0.4417  0.5311 -0.0263
    9CHTO   C49 3627   7.038   3.622   0.808 -0.2701 -0.9980 -0.2656
    9CHTO   H91 3628   7.034   3.553   0.723  0.6947 -1.7056  0.2618
    9CHTO   C47 3629   6.901   3.693   0.829  0.0634 -0.3197  0.0745
    9CHTO   H89 3630   6.825   3.613   0.829  0.6696 -0.9026 -0.3022
    9CHTO   O33 3631   6.867   3.778   0.715  0.0172 -0.7047 -0.0740
    9CHTO   H70 3632   6.910   3.862   0.720 -1.7076  0.2566 -0.7654
    9CHTO   C45 3633   6.902   3.773   0.967 -0.0690  0.1531 -0.0605
    9CHTO   H87 3634   6.987   3.843   0.974 -0.7751  1.2410 -2.0262
    9CHTO    N8 3635   6.771   3.843   0.975  0.2818 -0.0464 -0.1166
    9CHTO   H75 3636   6.758   3.900   1.065 -0.4798  0.2781 -0.4257
    9CHTO   H76 3637   6.759   3.908   0.889  0.9859 -1.0343 -0.9836
    9CHTO   C43 3638   6.927   3.667   1.080  0.2018 -0.6469  0.2268
    9CHTO   H85 3639   6.932   3.726   1.172  1.5710 -0.5096  0.0653
    9CHTO   O29 3640   7.056   3.606   1.052 -0.5693  0.1689 -0.0066
    9CHTO   C50 3641   7.077   3.537   0.926  0.1017  0.0803 -0.1717
    9CHTO   H92 3642   7.186   3.525   0.926  0.1083 -0.1806  2.2558
    9CHTO   C54 3643   7.016   3.394   0.927  0.1123  0.4100  0.1084
    9CHTO   O36 3644   7.098   3.314   0.838 -0.1882  0.0421 -0.1672
    9CHTO   H72 3645   7.043   3.279   0.769  1.0878 -0.7672 -0.7897
    9CHTO   O27 3646   6.821   3.571   1.094 -0.0127  0.7080 -0.2642
    9CHTO   C37 3647   6.748   3.499   1.195 -0.2205  0.2533 -0.0510
    9CHTO   H79 3648   6.727   3.397   1.162  1.0027  0.3879 -1.2880
    9CHTO   C38 3649   6.840   3.480   1.325 -0.0224 -0.2235 -0.6872
    9CHTO   H80 3650   6.891   3.576   1.341 -3.7122  1.4570  1.8021
    9CHTO   O31 3651   6.943   3.377   1.308 -0.4937 -0.2983 -0.3396
    9CHTO   H68 3652   6.975   3.347   1.391  1.8598 -3.0114 -2.1465
    9CHTO   C39 3653   6.742   3.459   1.448  0.8682  0.1470  0.0986
    9CHTO   H81 3654   6.693   3.363   1.430  0.1497  0.7050 -0.9409
    9CHTO    N7 3655   6.817   3.454   1.581  0.4196  0.1529 -0.0315
    9CHTO   H73 3656   6.771   3.523   1.650  0.2433  0.8264 -0.8213
    9CHTO   H74 3657   6.851   3.355   1.608  0.1636 -0.2832 -1.2636
    9CHTO   C40 3658   6.625   3.566   1.453 -0.3412  0.2022 -1.2614
    9CHTO   H82 3659   6.677   3.662   1.446 -1.6215  1.1053  1.1132
    9CHTO   O26 3660   6.546   3.543   1.333 -0.0259 -0.0204  0.7100
    9CHTO   C41 3661   6.618   3.580   1.218  0.0471  0.3708  0.4827
    9CHTO   H83 3662   6.644   3.687   1.226  0.8620  0.4364 -2.4238
    9CHTO   C52 3663   6.515   3.564   1.095  0.0879 -0.0540 -0.1492
    9CHTO   O35 3664   6.425   3.678   1.084 -0.3180 -0.4392 -0.4192
    9CHTO   H71 3665   6.451   3.724   1.007  1.1583  1.7036  1.3025
    9CHTO   O28 3666   6.535   3.570   1.566 -0.2309  0.1271  0.2393
    9CHTO   C42 3667   6.442   3.678   1.586  0.3413 -0.3360  0.3202
    9CHTO   H84 3668   6.402   3.657   1.685 -2.1881  0.7713 -0.4164
    9CHTO   C44 3669   6.315   3.683   1.487  0.1140  0.3634 -0.0644
    9CHTO   H86 3670   6.343   3.704   1.384 -1.4541 -0.3556 -0.6473
    9CHTO   O32 3671   6.256   3.548   1.490 -0.4146 -0.2121 -0.6194
    9CHTO   H69 3672   6.317   3.488   1.452 -0.5674 -0.2513 -0.8067
    9CHTO   C48 3673   6.211   3.796   1.536 -0.2578 -1.0418  0.2230
    9CHTO   H90 3674   6.186   3.787   1.642  1.1219 -1.5171  0.5230
    9CHTO    N9 3675   6.078   3.816   1.461 -0.6285  0.2091 -0.2055
    9CHTO   H77 3676   6.004   3.827   1.539 -0.8197 -2.7752  0.0854
    9CHTO   H78 3677   6.063   3.718   1.419  1.3856  0.5827 -1.8650
    9CHTO   C51 3678   6.299   3.935   1.528  0.5195 -1.2249 -0.6761
    9CHTO   H93 3679   6.345   3.935   1.429  0.9188 -1.4437 -0.4922
    9CHTO   O30 3680   6.400   3.932   1.634 -0.2334 -0.3368 -0.2935
    9CHTO   C46 3681   6.514   3.820   1.606  0.0452  0.6105 -0.3350
    9CHTO   H88 3682   6.561   3.852   1.513 -3.7530  1.8535 -1.9110
    9CHTO   C53 3683   6.613   3.819   1.725 -0.6589  0.5892  0.0988
    9CHTO   O72 3684   6.722   3.906   1.707 -0.2598  0.2192 -0.7309
    9CHTO  H199 3685   6.767   3.920   1.788  0.9352 -2.9962 -0.7589
    9CHTO   O22 3686   6.231   4.068   1.551 -0.3511 -0.2837 -0.3706
    9CHTO   C31 3687   6.271   4.187   1.471 -0.3670  0.3208  0.1424
    9CHTO   H59 3688   6.203   4.270   1.497 -2.0590 -0.1838 -2.4566
    9CHTO   C29 3689   6.410   4.241   1.508  0.2634  0.4436 -0.1985
    9CHTO   H57 3690   6.479   4.155   1.509  0.0621  0.2841  0.0634
    9CHTO   O21 3691   6.408   4.292   1.644  0.1780 -0.2132  0.1904
    9CHTO   H37 3692   6.489   4.338   1.656  0.5869 -1.2490  1.3860
    9CHTO   C27 3693   6.471   4.348   1.403 -0.4558  0.2660  0.3751
    9CHTO   H55 3694   6.408   4.438   1.410  1.7138  1.8553 -0.1333
    9CHTO    N5 3695   6.618   4.373   1.428  0.2526 -0.0065  0.2310
    9CHTO   H43 3696   6.670   4.279   1.420  0.5325  0.2944 -1.7315
    9CHTO   H44 3697   6.657   4.440   1.353  0.7145 -0.4370  0.0819
    9CHTO   C25 3698   6.439   4.308   1.252  0.5563 -0.1206 -0.5393
    9CHTO   H53 3699   6.487   4.212   1.231  0.2920 -0.7201  1.4389
    9CHTO   O17 3700   6.295   4.278   1.241  0.0143  0.1782 -0.2354
    9CHTO   C32 3701   6.258   4.161   1.317  0.1639 -0.0000 -0.3665
    9CHTO   H60 3702   6.317   4.077   1.280  1.2466  1.3505 -1.8016
    9CHTO   C36 3703   6.113   4.140   1.275  0.1861  0.5229  0.2865
    9CHTO   O25 3704   6.101   4.084   1.141  0.1447  0.6778 -0.0468
    9CHTO   H40 3705   6.016   4.100   1.107  0.5511  0.5085 -1.1556
    9CHTO   O15 3706   6.476   4.413   1.147 -0.0737  0.6107 -0.1541
    9CHTO   C19 3707   6.435   4.384   1.004 -0.4215 -0.1226  0.4797
    9CHTO   H47 3708   6.497   4.455   0.946  0.0327  0.1205  1.2533
    9CHTO   C20 3709   6.484   4.249   0.955  0.5011  0.9637 -0.4168
    9CHTO   H48 3710   6.448   4.168   1.020  2.1785  0.2567 -0.3278
    9CHTO   O19 3711   6.629   4.244   0.961 -0.0534  0.0241  0.0102
    9CHTO   H35 3712   6.666   4.276   1.041  1.5382  0.5790 -0.9286
    9CHTO   C21 3713   6.449   4.211   0.803 -0.3003  0.7801  0.6673
    9CHTO   H49 3714   6.510   4.273   0.736  0.5139 -0.4963  0.2054
    9CHTO    N4 3715   6.488   4.078   0.764  0.0946  0.8150 -0.0302
    9CHTO   H41 3716   6.489   4.072   0.656  1.5187  1.5175 -0.0750
    9CHTO   H42 3717   6.440   3.991   0.805  0.7906  0.0762 -0.7635
    9CHTO   C22 3718   6.296   4.253   0.791 -0.7004  0.2236  0.4902
    9CHTO   H50 3719   6.234   4.185   0.849  0.4938 -0.8447  0.5467
    9CHTO   O14 3720   6.270   4.398   0.821 -0.1931  0.4534  0.5318
    9CHTO   C23 3721   6.288   4.413   0.961  0.0327 -0.4642  0.4371
    9CHTO   H51 3722   6.215   4.352   1.015 -0.5935  2.1146  2.5948
    9CHTO   C34 3723   6.233   4.547   1.010  0.0674 -0.4893 -0.3439
    9CHTO   O23 3724   6.097   4.581   0.963  0.1758 -0.2974  0.0425
    9CHTO   H38 3725   6.103   4.637   0.887 -0.2843 -0.9439 -0.4769
    9CHTO   O16 3726   6.255   4.247   0.653  0.1087  0.0372 -0.3956
    9CHTO   C24 3727   6.153   4.111   0.601  0.1629  0.8644 -0.3130
    9CHTO   H52 3728   6.162   4.025   0.668 -1.4081  0.9024 -0.0414
    9CHTO   C26 3729   6.197   4.061   0.458  0.2119  0.1354 -0.5024
    9CHTO   H54 3730   6.202   4.146   0.386 -0.6750 -0.0101 -0.7340
    9CHTO   O20 3731   6.324   3.989   0.467  0.4018  0.2650 -0.0406
    9CHTO   H36 3732   6.393   4.052   0.475  0.5962 -0.1358  1.7919
    9CHTO   C30 3733   6.087   3.957   0.411 -0.2071 -0.5409 -0.3342
    9CHTO   H58 3734   6.107   3.874   0.480 -2.1760 -2.3555 -1.8969
    9CHTO    N6 3735   6.116   3.907   0.276  0.6875  0.4852 -0.3997
    9CHTO   H45 3736   6.080   3.982   0.207  0.8110  1.6132  0.7565
    9CHTO   H46 3737   6.057   3.818   0.262  2.1465 -0.3727 -1.2970
    9CHTO   C33 3738   5.938   4.001   0.443 -0.2998  0.8060  0.8470
    9CHTO   H61 3739   5.911   4.077   0.369 -3.8727 -1.0961  0.0798
    9CHTO   O18 3740   5.919   4.053   0.569  0.0537  0.2044  0.2553
    9CHTO   C28 3741   6.005   4.162   0.604  0.3285 -0.0716  0.0672
    9CHTO   H56 3742   5.990   4.241   0.531  1.5779 -0.9705 -1.1708
    9CHTO   C35 3743   5.943   4.205   0.741 -0.3041  0.5220  0.3002
    9CHTO   O24 3744   5.820   4.282   0.729 -0.1594  0.0770 -0.4313
    9CHTO   H39 3745   5.784   4.299   0.814  0.1450 -2.1644  0.1713
    9CHTO    O9 3746   5.850   3.888   0.416 -0.5340 -0.5241  0.6115
    9CHTO   C13 3747   5.715   3.939   0.305  0.2757 -0.2848  0.8190
    9CHTO   H26 3748   5.756   4.005   0.226  0.9259 -1.9464 -0.2732
    9CHTO   C11 3749   5.598   4.000   0.389  0.5039 -0.2824 -0.3790
    9CHTO   H24 3750   5.623   4.104   0.412  1.0401 -0.2725 -0.9713
    9CHTO    O8 3751   5.590   3.935   0.516 -0.0060 -0.5295  0.7046
    9CHTO    H3 3752   5.673   3.930   0.560 -1.3713 -2.4591  3.1767
    9CHTO    C9 3753   5.468   4.001   0.301 -1.1439 -0.0203 -0.4668
    9CHTO   H22 3754   5.497   4.034   0.200 -1.9809  1.1988 -0.3217
    9CHTO    N2 3755   5.355   4.085   0.350 -0.1449 -0.4282  0.4136
    9CHTO   H10 3756   5.269   4.086   0.285  1.8562  0.1313 -2.3583
    9CHTO   H11 3757   5.315   4.049   0.444  0.5578  1.0942  1.3167
    9CHTO    C7 3758   5.431   3.851   0.293  0.1603 -1.1068 -0.0606
    9CHTO   H20 3759   5.364   3.830   0.207 -0.8700  0.3880  0.3517
    9CHTO    O4 3760   5.547   3.765   0.278  0.2010 -0.7023 -0.5572
    9CHTO   C14 3761   5.661   3.819   0.217  0.0815  0.1442  0.3851
    9CHTO   H27 3762   5.633   3.867   0.121 -0.5809  0.2904  0.6411
    9CHTO   C18 3763   5.775   3.713   0.196  0.3586  0.2386  0.7047
    9CHTO   O13 3764   5.736   3.634   0.088 -0.2180 -0.5036  0.0108
    9CHTO    H7 3765   5.767   3.662   0.004  1.2390 -1.3961  0.2340
    9CHTO    O2 3766   5.336   3.787   0.436 -0.0833 -0.2012  0.7941
    9CHTO    C1 3767   5.214   3.720   0.407 -0.2199  0.6104 -0.2444
    9CHTO   H14 3768   5.223   3.702   0.298 -0.4544 -1.3869  0.0457
    9CHTO    C2 3769   5.087   3.807   0.426  0.5026  0.0268 -0.5937
    9CHTO   H15 3770   5.091   3.852   0.527  0.1382 -0.9914 -0.1238
    9CHTO    O6 3771   5.086   3.920   0.333  0.0631  0.1295  0.5853
    9CHTO    H1 3772   5.160   3.971   0.360  0.3692 -0.8725  1.6948
    9CHTO    C3 3773   4.961   3.716   0.415  1.2116 -0.0511  0.5784
    9CHTO   H16 3774   4.949   3.674   0.314 -4.2061  0.0932  1.0078
    9CHTO    N1 3775   4.831   3.788   0.442 -0.5838 -0.2044 -0.2470
    9CHTO    H8 3776   4.858   3.885   0.484 -1.8296 -0.5809  1.5178
    9CHTO    H9 3777   4.785   3.734   0.524 -1.6123  2.0638  0.7390
    9CHTO    C4 3778   4.979   3.587   0.503  0.2268 -0.5859  0.3815
    9CHTO   H17 3779   4.980   3.614   0.608 -1.2050 -0.7436  0.4460
    9CHTO    O1 3780   5.097   3.513   0.476 -0.2277  0.3056 -0.8902
    9CHTO    C5 3781   5.223   3.586   0.490  0.0796 -0.4862  0.4606
    9CHTO   H18 3782   5.233   3.601   0.597 -1.6473 -0.2631  0.6055
    9CHTO   C16 3783   5.338   3.503   0.445  0.3503  0.4984 -0.6342
    9CHTO   O11 3784   5.350   3.403   0.549  0.1469  0.3175  0.1256
    9CHTO    H5 3785   5.380   3.321   0.516 -2.4723  0.1356 -1.9392
    9CHTO    O3 3786   4.866   3.497   0.495  0.0880  0.5358  1.0463
    9CHTO    C6 3787   4.873   3.374   0.573 -0.0370  0.4132 -0.2002
    9CHTO   H19 3788   4.975   3.348   0.601  0.3816  1.3837 -0.8298
    9CHTO    C8 3789   4.801   3.390   0.713 -0.4632 -0.7250 -0.1733
    9CHTO   H21 3790   4.701   3.433   0.701  0.3439  1.4996  0.9026
    9CHTO    O7 3791   4.885   3.467   0.804  0.0079 -0.2681  0.0481
    9CHTO    H2 3792   4.859   3.557   0.812  1.3777  0.1989 -0.5949
    9CHTO   C12 3793   4.775   3.255   0.790 -0.2051  0.2692  0.1763
    9CHTO   H25 3794   4.875   3.216   0.818 -0.6699 -1.5550 -0.5921
    9CHTO    N3 3795   4.693   3.271   0.912  0.2698  0.4275 -0.1275
    9CHTO   H12 3796   4.611   3.341   0.911 -0.6765 -0.6778 -1.0491
    9CHTO   H13 3797   4.664   3.174   0.951  2.2263  0.4843  1.5491
    9CHTO   C15 3798   4.709   3.154   0.695  0.0714  0.3372  0.2274
    9CHTO   H28 3799   4.608   3.183   0.666  0.3779 -0.8920 -2.2377
    9CHTO   O10 3800   4.706   3.008   0.732 -0.1941  0.1789 -0.5135
    9CHTO    H4 3801   4.627   2.991   0.780  0.4298 -2.2348 -0.2334
    9CHTO    O5 3802   4.783   3.142   0.570  0.8342  0.1726 -0.3520
    9CHTO   C10 3803   4.804   3.260   0.495 -1.1103 -0.8687  0.2688
    9CHTO   H23 3804   4.706   3.281   0.453 -0.5860  2.3489  0.5432
    9CHTO   C17 3805   4.873   3.232   0.359  0.2461  0.2470  0.4112
    9CHTO   O12 3806   5.007   3.196   0.375  0.1113 -0.3017 -0.0079
    9CHTO    H6 3807   5.060   3.214   0.300 -0.0890 -1.5141 -0.4553
   10CHTO  H203 3808   3.537   6.215  -0.364 -1.1739  1.4254  0.3952
   10CHTO   O82 3809   3.609   6.274  -0.378  0.2254 -0.3620 -0.0847
   10CHTO  C123 3810   3.639   6.347  -0.257 -0.0249  0.3672  1.0251
   10CHTO  H227 3811   3.748   6.349  -0.241 -0.0664  2.4255  1.1551
   10CHTO   O77 3812   3.599   6.486  -0.290  0.0559  0.1218  0.1224
   10CHTO  C118 3813   3.634   6.587  -0.200 -0.0721 -0.3819 -0.2223
   10CHTO  H222 3814   3.740   6.600  -0.174 -0.0232 -0.8149 -0.2026
   10CHTO  C125 3815   3.586   6.720  -0.278  0.8598 -0.2714 -1.1636
   10CHTO   O84 3816   3.616   6.842  -0.211  0.3375  0.3351 -0.0888
   10CHTO  H205 3817   3.602   6.906  -0.278 -1.4909 -1.0976 -1.1243
   10CHTO  C114 3818   3.573   6.564  -0.063  0.4319 -0.0946 -0.2152
   10CHTO  H218 3819   3.464   6.571  -0.065  0.4469 -0.1288 -1.9917
   10CHTO  C116 3820   3.589   6.417  -0.015  0.0378 -0.2478  0.4139
   10CHTO  H220 3821   3.694   6.400   0.016 -0.3074 -0.4786  1.4629
   10CHTO   O79 3822   3.500   6.406   0.091  0.4016 -0.2291  0.0237
   10CHTO  H201 3823   3.443   6.337   0.062  0.6900  0.3367 -1.9464
   10CHTO  C120 3824   3.560   6.303  -0.128  0.5538 -0.0923  0.1066
   10CHTO  H224 3825   3.455   6.310  -0.166  0.5144 -1.6359 -0.1110
   10CHTO   N21 3826   3.590   6.158  -0.083  0.1241 -0.2556  0.2735
   10CHTO  H211 3827   3.691   6.123  -0.101 -0.0820 -0.4686 -0.5232
   10CHTO  H212 3828   3.523   6.088  -0.131  1.3929 -1.0659 -0.3757
   10CHTO   O75 3829   3.631   6.670   0.012 -0.0273 -0.1656  0.1981
   10CHTO  C112 3830   3.608   6.671   0.178 -0.7547  0.3059 -0.8837
   10CHTO  H216 3831   3.661   6.580   0.211 -0.1440  0.1572 -2.2072
   10CHTO   O73 3832   3.465   6.665   0.209  0.1380 -0.1606 -0.0283
   10CHTO  C113 3833   3.425   6.633   0.342 -0.4114  0.0318  0.2659
   10CHTO  H217 3834   3.459   6.535   0.383 -0.7561 -1.1522 -2.1623
   10CHTO  C124 3835   3.272   6.637   0.348 -0.2456 -0.4827  0.0548
   10CHTO   O83 3836   3.219   6.523   0.288  0.4330 -0.1156  0.2599
   10CHTO  H204 3837   3.204   6.559   0.202 -0.6164  1.4072  1.0416
   10CHTO  C109 3838   3.476   6.752   0.429  0.2731 -0.2803  0.8063
   10CHTO  H213 3839   3.412   6.839   0.407 -1.4481 -1.4331  1.1134
   10CHTO  C110 3840   3.627   6.786   0.405 -0.1247  0.0888 -0.2023
   10CHTO  H214 3841   3.678   6.704   0.453 -0.4203 -0.8942 -1.5499
   10CHTO   O78 3842   3.661   6.899   0.488 -0.1303 -0.6083  0.0186
   10CHTO  H200 3843   3.754   6.902   0.476 -0.0164  0.2266  1.0653
   10CHTO  C111 3844   3.649   6.803   0.253 -0.0705 -0.1765 -0.6596
   10CHTO  H215 3845   3.597   6.892   0.216  0.1950  0.3808  0.2845
   10CHTO   N19 3846   3.795   6.831   0.235 -0.1414 -0.2247 -0.0291
   10CHTO  H207 3847   3.833   6.821   0.134  0.4742 -1.8299  0.3401
   10CHTO  H208 3848   3.814   6.932   0.268  3.4351 -1.1119  0.9381
   10CHTO   O74 3849   3.456   6.716   0.570  0.0864  0.6024 -0.2120
   10CHTO  C115 3850   3.398   6.821   0.682 -0.2750  0.1974 -0.0570
   10CHTO  H219 3851   3.386   6.920   0.637  0.1448 -0.1264 -0.9047
   10CHTO   O76 3852   3.258   6.787   0.723 -0.4872  0.6520  0.3785
   10CHTO  C122 3853   3.255   6.669   0.795  0.1533 -0.1160 -0.9088
   10CHTO  H226 3854   3.311   6.590   0.745  0.8425 -0.0039 -0.3083
   10CHTO  C126 3855   3.113   6.623   0.817  0.2293 -0.8753 -0.5469
   10CHTO   O85 3856   3.111   6.502   0.896 -0.0122 -0.2302  0.5768
   10CHTO  H206 3857   3.159   6.431   0.857  1.6717 -0.1669  2.4802
   10CHTO  C121 3858   3.334   6.693   0.939  0.4962  0.0978 -0.2888
   10CHTO  H225 3859   3.264   6.707   1.024  1.6928  2.6976  0.3175
   10CHTO   O81 3860   3.409   6.572   0.965 -0.3267 -0.1950  0.1272
   10CHTO  H202 3861   3.455   6.574   1.046 -2.2162  1.5927  1.2069
   10CHTO  C119 3862   3.421   6.814   0.939 -0.0221  0.7959  0.8567
   10CHTO  H223 3863   3.355   6.901   0.932  0.5658  1.1277 -1.1655
   10CHTO  C117 3864   3.498   6.824   0.800 -0.1518 -0.4474  0.1572
   10CHTO  H221 3865   3.567   6.740   0.789  1.1794  0.5723  0.4613
   10CHTO   N20 3866   3.587   6.951   0.794 -0.0082  0.9069  0.2057
   10CHTO  H209 3867   3.545   7.037   0.843  2.3233  0.9406  2.2511
   10CHTO  H210 3868   3.683   6.927   0.838  0.4539  1.7347 -0.3502
   10CHTO   O80 3869   3.503   6.838   1.073 -0.1884 -0.2478 -0.3852
   10CHTO  C103 3870   3.456   6.964   1.176 -0.2759  0.2213  0.0397
   10CHTO  H190 3871   3.525   6.967   1.260 -1.6708  1.4955  1.1756
   10CHTO  C101 3872   3.428   7.111   1.115  0.1142 -0.0231  0.7252
   10CHTO  H188 3873   3.359   7.101   1.031  0.9876 -0.0839  0.0142
   10CHTO   O68 3874   3.568   7.190   1.063 -0.6674  0.1849 -0.4002
   10CHTO  H168 3875   3.619   7.144   0.999  0.7352  1.9616 -0.6091
   10CHTO   C99 3876   3.353   7.200   1.232 -0.0441  0.3701 -0.1613
   10CHTO  H186 3877   3.429   7.214   1.312 -1.5114 -1.0814  1.5462
   10CHTO   N17 3878   3.309   7.336   1.185  0.4792  0.7431  0.5930
   10CHTO  H174 3879   3.323   7.349   1.079 -3.9529  2.3548  0.1018
   10CHTO  H175 3880   3.210   7.368   1.215  0.9264  2.7940 -0.0775
   10CHTO   C97 3881   3.236   7.115   1.287 -0.0221  0.7397  0.0289
   10CHTO  H184 3882   3.170   7.106   1.200  1.5650  0.2362 -1.1421
   10CHTO   O64 3883   3.283   6.986   1.339  0.2230 -0.3730  0.3601
   10CHTO  C104 3884   3.326   6.900   1.232  0.5147  1.0816 -0.3630
   10CHTO  H191 3885   3.251   6.877   1.156  0.6889 -1.3457  0.1778
   10CHTO  C108 3886   3.358   6.765   1.304  0.5865 -0.9099  0.3247
   10CHTO   O71 3887   3.236   6.699   1.346 -0.0758  0.0526  0.4689
   10CHTO  H171 3888   3.247   6.606   1.351  0.0652  0.1312  1.6878
   10CHTO   O62 3889   3.169   7.193   1.398  0.3212  0.1899  0.9011
   10CHTO   C91 3890   3.042   7.151   1.459  0.4278 -0.8458  0.5464
   10CHTO  H178 3891   3.016   7.052   1.421  1.4226 -0.5726 -0.8772
   10CHTO   C92 3892   2.926   7.255   1.419  0.3300  0.4037 -0.3950
   10CHTO  H179 3893   2.961   7.358   1.425  0.6736  0.2244  0.8789
   10CHTO   O66 3894   2.902   7.238   1.279 -0.2976 -0.1719  0.0157
   10CHTO  H166 3895   2.869   7.152   1.263 -0.4436 -0.4586  1.7766
   10CHTO   C93 3896   2.792   7.222   1.499  0.6285 -0.5375 -0.1729
   10CHTO  H180 3897   2.730   7.143   1.453  1.0257 -1.8807  1.5509
   10CHTO   N16 3898   2.700   7.340   1.492 -0.2051 -0.1280  0.5001
   10CHTO  H172 3899   2.612   7.313   1.549  0.0016 -2.5528 -0.2613
   10CHTO  H173 3900   2.746   7.433   1.524  0.2540  1.4753 -4.4735
   10CHTO   C94 3901   2.824   7.176   1.647 -0.4054 -1.0274 -0.1658
   10CHTO  H181 3902   2.839   7.263   1.710 -3.1890 -0.0917 -0.7245
   10CHTO   O61 3903   2.934   7.088   1.670  0.3950 -0.1004  0.3706
   10CHTO   C95 3904   3.054   7.145   1.613  0.5910 -0.4903  1.0646
   10CHTO  H182 3905   3.071   7.246   1.651  2.8459 -1.6429  3.3170
   10CHTO  C106 3906   3.182   7.078   1.675 -0.6567 -0.4107 -0.0888
   10CHTO   O69 3907   3.199   6.935   1.660  0.6362  0.8798 -0.4649
   10CHTO  H169 3908   3.250   6.906   1.734  1.5839  1.8784 -0.7306
   10CHTO   O63 3909   2.701   7.096   1.700  0.5965 -0.3591 -0.1955
   10CHTO   C96 3910   2.714   7.022   1.818 -0.8127 -0.1633 -0.3251
   10CHTO  H183 3911   2.806   7.046   1.872  0.0992 -2.7118 -0.6707
   10CHTO   C98 3912   2.702   6.871   1.808  0.0722 -0.2649 -0.1888
   10CHTO  H185 3913   2.628   6.832   1.737  0.1294 -1.4651  0.3931
   10CHTO   O67 3914   2.832   6.833   1.754  0.4542  0.4654 -0.0686
   10CHTO  H167 3915   2.811   6.798   1.670 -2.5940  0.4892  0.6073
   10CHTO  C102 3916   2.686   6.798   1.947 -0.2815  0.9784  0.1747
   10CHTO  H189 3917   2.782   6.796   2.000 -0.5413 -0.0469  0.6140
   10CHTO   N18 3918   2.636   6.659   1.940 -0.2068  0.5469 -0.6689
   10CHTO  H176 3919   2.705   6.589   1.894  0.1411  0.9334 -0.7321
   10CHTO  H177 3920   2.533   6.652   1.907 -0.4301  1.9557 -0.3117
   10CHTO  C105 3921   2.579   6.874   2.035 -0.0748  0.1883  0.0376
   10CHTO  H192 3922   2.482   6.855   1.988 -0.3787 -0.6429  0.9881
   10CHTO   O65 3923   2.597   7.015   2.040  0.0451  0.1403 -0.1675
   10CHTO  C100 3924   2.599   7.070   1.909  0.3331  0.6134 -1.3503
   10CHTO  H187 3925   2.505   7.049   1.856 -0.7398  1.5761  0.1343
   10CHTO  C107 3926   2.608   7.215   1.936 -0.9116  0.3825  0.4008
   10CHTO   O70 3927   2.476   7.263   1.970  0.1655 -0.5492 -0.1974
   10CHTO  H170 3928   2.460   7.265   2.062  2.4494 -0.0379  0.2080
   10CHTO   O57 3929   2.579   6.810   2.193  0.3087 -0.1593  0.1664
   10CHTO   C85 3930   2.516   6.861   2.309  0.0099 -0.4398 -0.0612
   10CHTO  H157 3931   2.417   6.896   2.272 -0.3103 -1.3647 -0.0876
   10CHTO   C83 3932   2.590   6.984   2.366 -1.3989 -0.4713  0.0172
   10CHTO  H155 3933   2.567   7.059   2.290 -0.3601 -0.6451 -0.4781
   10CHTO   O56 3934   2.735   6.954   2.366 -0.0628 -0.8915 -0.4643
   10CHTO  H135 3935   2.752   6.897   2.438  0.1483  1.0221  1.0416
   10CHTO   C81 3936   2.538   7.031   2.506 -0.8260  0.1162 -0.5524
   10CHTO  H153 3937   2.433   7.059   2.495 -1.8669 -3.3321 -0.0173
   10CHTO   N14 3938   2.607   7.152   2.531 -0.3622  0.3184 -0.2579
   10CHTO  H141 3939   2.582   7.206   2.620  0.3679 -1.4971  1.0898
   10CHTO  H142 3940   2.712   7.133   2.527 -0.3208 -0.5486  3.1355
   10CHTO   C79 3941   2.539   6.912   2.613  0.1029  0.2028 -0.0291
   10CHTO  H151 3942   2.475   6.948   2.693  0.2281  2.5910 -0.9770
   10CHTO   O52 3943   2.461   6.803   2.548  0.0278  0.0032 -0.0034
   10CHTO   C86 3944   2.501   6.751   2.416  0.4848  0.2538 -0.4431
   10CHTO  H158 3945   2.594   6.694   2.436  0.6764 -0.1838 -2.4445
   10CHTO   C90 3946   2.394   6.640   2.371  0.0453  0.4956 -0.2621
   10CHTO   O60 3947   2.444   6.561   2.261 -0.1063 -0.3856  0.3302
   10CHTO  H138 3948   2.384   6.489   2.251  1.2842 -1.2540 -2.3381
   10CHTO   O50 3949   2.670   6.885   2.663 -0.0245  0.2269 -0.3574
   10CHTO   C73 3950   2.682   6.833   2.805  0.2550 -0.0686 -0.3131
   10CHTO  H145 3951   2.592   6.774   2.829  0.6288 -0.0120  1.3114
   10CHTO   C74 3952   2.681   6.964   2.899 -0.4051 -0.2879 -0.0054
   10CHTO  H146 3953   2.589   7.018   2.871 -0.6496 -1.0768 -0.7680
   10CHTO   O54 3954   2.659   6.926   3.038 -0.4029 -0.3727 -0.1105
   10CHTO  H133 3955   2.704   6.989   3.091 -0.0901  2.9773 -4.0904
   10CHTO   C75 3956   2.812   7.051   2.877 -0.2708 -0.3222  0.0410
   10CHTO  H147 3957   2.820   7.069   2.769  3.7230  0.8537  0.4508
   10CHTO   N13 3958   2.807   7.186   2.944  1.0253  0.8348  0.2833
   10CHTO  H139 3959   2.820   7.168   3.049  2.1885  2.9131  0.5154
   10CHTO  H140 3960   2.887   7.254   2.920  1.1124  0.5939 -0.1258
   10CHTO   C76 3961   2.940   6.962   2.905 -0.4142  0.1784  0.1162
   10CHTO  H148 3962   2.932   6.936   3.011 -0.1595 -0.5531 -0.0472
   10CHTO   O49 3963   2.937   6.836   2.832  0.6608  0.1579  0.2884
   10CHTO   C77 3964   2.812   6.753   2.837 -0.6497  0.0643  0.6095
   10CHTO  H149 3965   2.809   6.717   2.940 -0.3303 -2.6768 -0.3036
   10CHTO   C88 3966   2.824   6.633   2.737 -0.4085  0.3007 -0.4820
   10CHTO   O58 3967   2.938   6.544   2.774 -0.3019  0.1280 -1.2743
   10CHTO  H136 3968   2.998   6.562   2.705  0.3089  1.2256 -0.4638
   10CHTO   O51 3969   3.080   7.048   2.856  0.3985 -0.2562 -0.0572
   10CHTO   C78 3970   3.193   7.049   2.953 -0.6251  0.3174  0.6024
   10CHTO  H150 3971   3.226   6.947   2.980  0.6350  1.1624  2.3827
   10CHTO   C80 3972   3.179   7.134   3.084  0.3263  0.1721  0.0795
   10CHTO  H152 3973   3.125   7.227   3.057  1.5700  1.1086  0.7575
   10CHTO   O55 3974   3.082   7.057   3.167 -0.4521 -0.0525 -0.2873
   10CHTO  H134 3975   3.117   7.030   3.250 -0.2559 -0.1164 -0.3879
   10CHTO   C84 3976   3.313   7.147   3.158  0.6190  0.2106  0.1351
   10CHTO  H156 3977   3.339   7.046   3.189 -0.7167 -0.4663 -0.8844
   10CHTO   N15 3978   3.308   7.241   3.277  0.2320  0.0439 -0.5346
   10CHTO  H143 3979   3.241   7.324   3.265 -2.3456 -1.8935  0.0445
   10CHTO  H144 3980   3.406   7.281   3.294 -0.8520  1.8883  1.7239
   10CHTO   C87 3981   3.434   7.173   3.065 -0.9218 -0.7427  0.5460
   10CHTO  H159 3982   3.428   7.278   3.037  0.7797 -1.0206 -1.0101
   10CHTO   O53 3983   3.434   7.084   2.954  0.2584 -0.3974 -0.3178
   10CHTO   C82 3984   3.320   7.085   2.872  0.2133  0.2540 -0.4842
   10CHTO  H154 3985   3.314   7.188   2.837 -2.9331  0.8689  1.6715
   10CHTO   C89 3986   3.358   6.994   2.755  0.2208 -0.3106 -1.1722
   10CHTO   O59 3987   3.468   7.052   2.676 -0.3363  0.1966  0.7655
   10CHTO  H137 3988   3.483   6.992   2.606 -0.8075 -0.5511  1.2906
   10CHTO   O45 3989   3.589   7.163   3.128 -0.7201 -0.5245  0.0520
   10CHTO   C67 3990   3.639   7.285   3.184  0.2642  0.6827  0.0718
   10CHTO  H124 3991   3.558   7.352   3.211 -0.1015 -0.0535  0.8228
   10CHTO   C65 3992   3.721   7.257   3.312 -0.2446  0.1619  1.0191
   10CHTO  H122 3993   3.666   7.181   3.367  1.4479 -2.7638 -1.1444
   10CHTO   O44 3994   3.746   7.377   3.376 -0.3184  0.1011 -0.5688
   10CHTO  H102 3995   3.708   7.369   3.461 -0.0655  1.7749 -0.2813
   10CHTO   C63 3996   3.856   7.173   3.266 -0.5872 -0.6311 -0.0719
   10CHTO  H120 3997   3.829   7.078   3.219 -0.1703 -0.3527 -0.8890
   10CHTO   N11 3998   3.937   7.125   3.379 -0.3826 -0.0672 -0.5263
   10CHTO  H108 3999   3.905   7.144   3.479  1.4307  1.5451 -0.2132
   10CHTO  H109 4000   4.035   7.164   3.359 -1.1131  1.4359 -1.2346
   10CHTO   C61 4001   3.936   7.263   3.157 -0.7357  0.2703  0.2290
   10CHTO  H118 4002   4.010   7.202   3.103 -0.5173  1.2843 -0.6398
   10CHTO   O40 4003   3.862   7.317   3.058  0.3693 -0.0683  0.0366
   10CHTO   C68 4004   3.724   7.362   3.070  0.0456  0.1034 -0.2591
   10CHTO  H125 4005   3.683   7.342   2.968 -0.5233  1.2886 -0.2778
   10CHTO   C72 4006   3.719   7.516   3.092  0.4128 -0.4421  0.1621
   10CHTO   O48 4007   3.776   7.585   2.981 -0.4751 -0.3775  0.3937
   10CHTO  H105 4008   3.789   7.676   3.001 -0.3720 -0.2437 -0.2683
   10CHTO   O38 4009   4.001   7.381   3.215  0.3188  0.0416 -0.1124
   10CHTO   C55 4010   4.140   7.407   3.187  0.1497 -0.2189  0.0514
   10CHTO  H112 4011   4.183   7.318   3.141 -0.2345 -1.1321  1.4233
   10CHTO   C56 4012   4.213   7.445   3.326 -0.7975  0.2890  0.5023
   10CHTO  H113 4013   4.155   7.530   3.363 -3.0126 -0.4808 -1.0665
   10CHTO   O42 4014   4.199   7.334   3.415  0.1070 -0.1106  0.0802
   10CHTO  H100 4015   4.224   7.255   3.372 -1.9591 -0.0631 -1.3242
   10CHTO   C57 4016   4.359   7.503   3.297  0.1353 -0.4985 -0.9327
   10CHTO  H114 4017   4.425   7.424   3.262  1.4932 -0.9205  2.3632
   10CHTO   N10 4018   4.430   7.539   3.424 -0.3978 -0.2448  0.1216
   10CHTO  H106 4019   4.416   7.464   3.501 -0.8855  0.2996  0.5746
   10CHTO  H107 4020   4.533   7.543   3.395 -0.8013  2.1843 -1.0999
   10CHTO   C58 4021   4.355   7.620   3.193  0.2933  0.5294 -0.4607
   10CHTO  H115 4022   4.297   7.706   3.234  0.7444  0.2936  0.7011
   10CHTO   O37 4023   4.305   7.565   3.067  0.9393 -0.5023 -0.4818
   10CHTO   C59 4024   4.167   7.519   3.077  0.4409  0.2896  0.1157
   10CHTO  H116 4025   4.098   7.602   3.095 -1.3283 -1.1698  0.2592
   10CHTO   C70 4026   4.121   7.460   2.941 -0.2470  0.0644  0.3272
   10CHTO   O46 4027   4.095   7.550   2.836  0.3643 -0.0193 -0.1060
   10CHTO  H103 4028   4.177   7.573   2.795  0.0186 -0.3571 -1.0114
   10CHTO   O39 4029   4.498   7.669   3.154  0.1998  0.2211 -0.0885
   10CHTO   C60 4030   4.509   7.782   3.064 -0.1863  0.2521  0.1031
   10CHTO  H117 4031   4.463   7.756   2.969 -0.8425 -0.8300  0.7151
   10CHTO   C62 4032   4.430   7.911   3.111  0.8347 -0.0451 -0.5214
   10CHTO  H119 4033   4.321   7.892   3.111  0.7594  0.3521  0.2889
   10CHTO   O43 4034   4.471   7.946   3.245 -0.4253 -0.3345  0.0551
   10CHTO  H101 4035   4.555   7.914   3.270 -0.5070  0.3789  1.2907
   10CHTO   C66 4036   4.449   8.031   3.007 -0.3313 -0.3141  0.5240
   10CHTO  H123 4037   4.410   7.998   2.911  0.8533  0.7315 -0.3322
   10CHTO   N12 4038   4.365   8.149   3.045 -0.2979 -0.4768  0.6098
   10CHTO  H110 4039   4.408   8.230   2.988  0.7058 -1.1518  0.3845
   10CHTO  H111 4040   4.266   8.136   3.003 -0.4149  0.8013  0.4592
   10CHTO   C69 4041   4.598   8.053   2.982  0.6526  0.2670  0.2707
   10CHTO  H126 4042   4.638   8.078   3.082  0.1005  0.6992  0.3911
   10CHTO   O41 4043   4.666   7.909   2.932  0.0313 -0.1782 -0.2512
   10CHTO   C64 4044   4.664   7.817   3.032  0.9476  0.4923 -0.5545
   10CHTO  H121 4045   4.707   7.858   3.126  0.8806  0.6885 -0.6092
   10CHTO   C71 4046   4.736   7.693   2.991  0.1403 -0.3920  0.4238
   10CHTO   O47 4047   4.880   7.704   3.018  0.4536 -0.4592  0.1719
   10CHTO  H104 4048   4.890   7.667   3.104 -1.0533 -0.9845  0.1483
   10CHTO   O34 4049   4.634   8.168   2.881  0.5989  0.0419  0.3621
   10CHTO   C49 4050   4.726   8.262   2.883  0.9902 -0.4020  0.8245
   10CHTO   H91 4051   4.805   8.229   2.952 -0.5790 -1.6248  2.0592
   10CHTO   C47 4052   4.661   8.386   2.943  0.4566 -0.7139  0.3461
   10CHTO   H89 4053   4.731   8.472   2.942 -1.1037  0.5950  1.2185
   10CHTO   O33 4054   4.619   8.365   3.082 -0.2640 -0.1343 -0.0505
   10CHTO   H70 4055   4.590   8.448   3.115 -2.6666 -0.5197 -1.0720
   10CHTO   C45 4056   4.536   8.430   2.845 -0.6926 -0.0872  0.5259
   10CHTO   H87 4057   4.471   8.342   2.833  1.5205 -1.4908 -1.7676
   10CHTO    N8 4058   4.460   8.546   2.901 -0.9468  0.0419  0.1041
   10CHTO   H75 4059   4.459   8.639   2.845 -0.1545 -1.0307 -1.7263
   10CHTO   H76 4060   4.361   8.510   2.926 -0.9941 -0.9914 -1.5021
   10CHTO   C43 4061   4.602   8.465   2.699  0.0352 -0.0546  0.2356
   10CHTO   H85 4062   4.515   8.483   2.637  2.4564 -1.0352 -3.6270
   10CHTO   O29 4063   4.677   8.355   2.653 -0.3388  0.0243  0.4341
   10CHTO   C50 4064   4.776   8.294   2.736 -0.2102 -0.3290  0.2470
   10CHTO   H92 4065   4.798   8.199   2.685 -1.6273  0.5782 -2.1993
   10CHTO   C54 4066   4.901   8.373   2.717 -0.4712  0.1435 -0.1610
   10CHTO   O36 4067   5.014   8.318   2.784  0.4635 -0.0837 -0.1878
   10CHTO   H72 4068   5.084   8.378   2.772 -0.5937  1.0976 -0.5404
   10CHTO   O27 4069   4.674   8.588   2.701 -0.1211 -0.2888  0.3369
   10CHTO   C37 4070   4.716   8.689   2.608 -0.5645 -0.6267 -0.8084
   10CHTO   H79 4071   4.803   8.651   2.553  2.1892  1.5077  1.9533
   10CHTO   C38 4072   4.610   8.718   2.500 -0.6706 -0.5813 -0.1375
   10CHTO   H80 4073   4.516   8.733   2.556 -1.1265 -2.7317 -0.2805
   10CHTO   O31 4074   4.592   8.604   2.415  0.2252 -0.2867  0.6636
   10CHTO   H68 4075   4.561   8.532   2.465 -1.0417 -0.6997 -0.6892
   10CHTO   C39 4076   4.645   8.846   2.420  0.7377 -0.7365  0.3577
   10CHTO   H81 4077   4.727   8.830   2.350 -0.4954 -1.6453 -0.9136
   10CHTO    N7 4078   4.538   8.896   2.328  0.0687 -0.0866  0.1606
   10CHTO   H73 4079   4.528   9.003   2.330 -2.1944 -0.1860 -2.9155
   10CHTO   H74 4080   4.443   8.858   2.363 -0.1219  1.0885  0.9456
   10CHTO   C40 4081   4.690   8.963   2.516 -0.5823 -0.0606 -0.0832
   10CHTO   H82 4082   4.608   8.989   2.582  1.5056 -1.2984  3.0929
   10CHTO   O26 4083   4.804   8.912   2.592  0.1544  0.5288 -0.1351
   10CHTO   C41 4084   4.756   8.813   2.682  0.2451 -0.2084 -0.6999
   10CHTO   H83 4085   4.675   8.865   2.736 -1.0146 -1.3840 -1.4154
   10CHTO   C52 4086   4.882   8.781   2.778  0.3504  0.3154 -0.4824
   10CHTO   O35 4087   4.872   8.700   2.888  0.5168  0.4208 -0.4107
   10CHTO   H71 4088   4.954   8.672   2.924  1.0843 -0.1981 -2.1066
   10CHTO   O28 4089   4.748   9.073   2.447  0.1694  0.5417  0.1281
   10CHTO   C42 4090   4.724   9.208   2.487  0.5555  0.4434 -0.4960
   10CHTO   H84 4091   4.724   9.201   2.596  2.1774 -1.3555 -0.5713
   10CHTO   C44 4092   4.590   9.268   2.438 -0.9083  0.2948  0.0444
   10CHTO   H86 4093   4.570   9.231   2.337  0.1744 -0.1184 -0.0204
   10CHTO   O32 4094   4.477   9.213   2.511 -0.2777  0.4794  0.5449
   10CHTO   H69 4095   4.437   9.144   2.463  0.1139 -0.9280  2.1942
   10CHTO   C48 4096   4.586   9.429   2.444  0.1619 -0.4934 -0.5819
   10CHTO   H90 4097   4.587   9.450   2.551  2.4770  0.0016 -0.6754
   10CHTO    N9 4098   4.458   9.497   2.385 -0.3087 -0.1130 -0.0527
   10CHTO   H77 4099   4.460   9.604   2.401 -2.1811 -0.1376  0.4602
   10CHTO   H78 4100   4.370   9.462   2.436  0.5802 -0.4671  1.2576
   10CHTO   C51 4101   4.713   9.487   2.385 -0.2956  0.4641 -0.4476
   10CHTO   H93 4102   4.712   9.453   2.281  1.8605  0.4789 -0.5133
   10CHTO   O30 4103   4.823   9.428   2.464 -0.2885  0.0416 -0.1358
   10CHTO   C46 4104   4.850   9.294   2.440 -0.0090  0.0622 -0.6964
   10CHTO   H88 4105   4.868   9.278   2.334 -1.1890 -2.1994 -0.6065
   10CHTO   C53 4106   4.979   9.264   2.526  0.1390  1.1858 -0.1387
   10CHTO   O72 4107   5.090   9.317   2.452  0.4944  0.2256  0.3309
   10CHTO  H199 4108   5.135   9.245   2.412 -0.4150 -0.3642  0.3589
   10CHTO   O22 4109   4.735   9.629   2.398 -0.7491 -0.1792 -0.4545
   10CHTO   C31 4110   4.840   9.693   2.323 -0.2793 -0.0864 -0.2387
   10CHTO   H59 4111   4.846   9.796   2.364  0.0751 -0.3765  0.4351
   10CHTO   C29 4112   4.984   9.639   2.339 -0.3440 -0.3555  0.1985
   10CHTO   H57 4113   4.995   9.535   2.305  0.6239 -0.0927 -0.3307
   10CHTO   O21 4114   5.016   9.636   2.474  0.1993  0.1773  0.1636
   10CHTO   H37 4115   5.054   9.716   2.504  1.3771 -0.2781 -0.0902
   10CHTO   C27 4116   5.096   9.729   2.266 -0.2319  0.7477 -0.6541
   10CHTO   H55 4117   5.096   9.822   2.325 -2.1720 -2.4222  4.6590
   10CHTO    N5 4118   5.229   9.667   2.259  0.9780  0.0796  0.2680
   10CHTO   H43 4119   5.308   9.741   2.263 -1.5597  3.0161 -1.5352
   10CHTO   H44 4120   5.241   9.601   2.175  1.8618  0.6927 -0.1031
   10CHTO   C25 4121   5.042   9.744   2.112  0.9768 -0.3350 -0.1780
   10CHTO   H53 4122   5.034   9.649   2.058  2.0026 -0.2427 -0.4930
   10CHTO   O17 4123   4.903   9.792   2.107  0.0967  0.4595 -0.1113
   10CHTO   C32 4124   4.808   9.703   2.171  0.3311  0.2609  0.2626
   10CHTO   H60 4125   4.816   9.605   2.125 -0.1216  0.1749  0.3701
   10CHTO   C36 4126   4.672   9.768   2.133 -0.2981  0.1826 -0.8575
   10CHTO   O25 4127   4.646   9.763   1.995 -0.8085 -0.0585 -0.1285
   10CHTO   H40 4128   4.713   9.819   1.959  0.1927 -1.3175 -0.2691
   10CHTO   O15 4129   5.131   9.829   2.011 -0.2218 -0.0366 -0.6297
   10CHTO   C19 4130   5.199   9.887   1.898  0.3617  0.4159  0.1157
   10CHTO   H47 4131   5.124   9.912   1.822 -1.3007 -1.5478  1.0399
   10CHTO   C20 4132   5.268  10.019   1.942 -0.6696 -0.0744 -0.5546
   10CHTO   H48 4133   5.349   9.999   2.014 -1.2902 -0.5345  0.0273
   10CHTO   O19 4134   5.170  10.106   2.002 -0.1139  0.4662 -0.1495
   10CHTO   H35 4135   5.187  10.194   1.975  0.2064  0.2002 -0.8289
   10CHTO   C21 4136   5.351  10.074   1.825  0.3079 -0.0851 -0.2394
   10CHTO   H49 4137   5.284  10.101   1.743 -0.1808 -1.6894 -0.3887
   10CHTO    N4 4138   5.432  10.195   1.850  0.3813  0.0560 -0.3489
   10CHTO   H41 4139   5.481  10.233   1.761 -0.3320  1.2123 -0.2531
   10CHTO   H42 4140   5.371  10.274   1.890  0.3671 -0.0008 -0.2613
   10CHTO   C22 4141   5.435   9.959   1.760  0.3661 -0.1269 -0.1152
   10CHTO   H50 4142   5.503   9.917   1.835  0.3846 -0.0452 -0.0874
   10CHTO   O14 4143   5.352   9.853   1.723  0.8519  0.5286  0.4101
   10CHTO   C23 4144   5.299   9.785   1.835 -0.4529 -0.1043  0.6997
   10CHTO   H51 4145   5.380   9.759   1.905  0.8520  0.3967 -0.5994
   10CHTO   C34 4146   5.243   9.650   1.789 -0.2207 -0.5117 -0.0332
   10CHTO   O23 4147   5.334   9.579   1.711 -1.0206  0.2600  0.4516
   10CHTO   H38 4148   5.327   9.615   1.625  1.8007  1.6588  0.7527
   10CHTO   O16 4149   5.501   9.986   1.636  0.6535  0.8332 -0.6442
   10CHTO   C24 4150   5.684   9.985   1.667 -0.2371  0.4454 -0.5207
   10CHTO   H52 4151   5.711   9.993   1.773 -3.4380  0.3533  0.3372
   10CHTO   C26 4152   5.732  10.106   1.586  0.1080  0.0099 -0.5120
   10CHTO   H54 4153   5.681  10.109   1.488  0.8517 -1.6030 -0.9585
   10CHTO   O20 4154   5.691  10.225   1.654  0.2900 -0.9432  0.1687
   10CHTO   H36 4155   5.717  10.289   1.591 -0.7875 -2.1234 -1.5289
   10CHTO   C30 4156   5.887  10.101   1.590 -0.0553 -0.3935  0.4002
   10CHTO   H58 4157   5.920  10.133   1.690 -0.9658 -0.2090  0.6404
   10CHTO    N6 4158   5.949  10.199   1.492  0.3290 -0.1937 -0.3195
   10CHTO   H45 4159   6.051  10.224   1.516  0.3824  1.1709 -1.8347
   10CHTO   H46 4160   5.891  10.289   1.474  0.0522 -0.2413  0.3015
   10CHTO   C33 4161   5.939   9.956   1.568  0.3234 -0.4530  0.3198
   10CHTO   H61 4162   5.915   9.925   1.465 -0.7909 -1.6433  0.9119
   10CHTO   O18 4163   5.876   9.852   1.652  0.2820 -0.0537  0.0962
   10CHTO   C28 4164   5.736   9.843   1.620 -0.6320 -0.2652 -0.2391
   10CHTO   H56 4165   5.719   9.837   1.512  1.3740  2.4901 -0.7589
   10CHTO   C35 4166   5.679   9.714   1.690 -0.3621  0.6855 -0.1181
   10CHTO   O24 4167   5.690   9.719   1.829  0.4102 -0.0964  0.1917
   10CHTO   H39 4168   5.663   9.640   1.872 -1.3872  0.2009 -0.3809
   10CHTO    O9 4169   6.086   9.959   1.578 -0.2474 -0.5588 -0.0251
   10CHTO   C13 4170   6.153   9.878   1.470  0.1521  0.1875  0.4943
   10CHTO   H26 4171   6.111   9.925   1.379  2.8060  0.5668 -0.5806
   10CHTO   C11 4172   6.113   9.724   1.476  0.0830 -0.7883 -0.6525
   10CHTO   H24 4173   6.004   9.730   1.458 -0.4167  0.4357  2.3912
   10CHTO    O8 4174   6.139   9.668   1.608 -0.4640  0.1604  0.4117
   10CHTO    H3 4175   6.117   9.579   1.588 -0.0754  0.0328  0.5243
   10CHTO    C9 4176   6.181   9.654   1.361 -0.4477 -0.2971 -0.4751
   10CHTO   H22 4177   6.144   9.702   1.269  1.0043 -1.1865 -1.5710
   10CHTO    N2 4178   6.124   9.519   1.336 -0.2951 -0.3591 -0.1499
   10CHTO   H10 4179   6.036   9.517   1.274  0.5049 -0.3631 -1.3085
   10CHTO   H11 4180   6.197   9.454   1.289 -0.3266  0.3026 -1.1317
   10CHTO    C7 4181   6.336   9.673   1.372  0.1800 -0.3841  0.0172
   10CHTO   H20 4182   6.363   9.700   1.268 -2.0439 -1.4172 -0.8473
   10CHTO    O4 4183   6.380   9.778   1.465 -0.7075  0.1880  0.3841
   10CHTO   C14 4184   6.310   9.901   1.463 -0.1250  0.3409 -0.2477
   10CHTO   H27 4185   6.329   9.949   1.365  0.5899 -0.3149 -0.4417
   10CHTO   C18 4186   6.380   9.994   1.569 -0.5803  0.0243  0.3441
   10CHTO   O13 4187   6.378   9.935   1.704 -0.0799 -0.5472  0.5045
   10CHTO    H7 4188   6.440   9.988   1.750 -0.3996  0.7660 -0.5473
   10CHTO    O2 4189   6.411   9.522   1.413 -0.4089 -0.8124 -0.0105
   10CHTO    C1 4190   6.536   9.534   1.485 -0.5886  0.1638 -0.2989
   10CHTO   H14 4191   6.514   9.603   1.569 -0.4460  0.8102 -0.7883
   10CHTO    C2 4192   6.657   9.593   1.401 -0.0102  0.0716  0.1777
   10CHTO   H15 4193   6.633   9.565   1.297 -1.3445 -0.0907  0.5247
   10CHTO    O6 4194   6.647   9.739   1.403 -0.0449  0.8349  0.0346
   10CHTO    H1 4195   6.734   9.773   1.416  0.0524  0.1279  1.2928
   10CHTO    C3 4196   6.797   9.537   1.452 -0.8042  0.7441  0.1271
   10CHTO   H16 4197   6.815   9.588   1.547 -0.4517 -0.7616  0.8739
   10CHTO    N1 4198   6.911   9.588   1.359 -0.0247 -0.1357  0.4968
   10CHTO    H8 4199   6.885   9.660   1.283 -0.5469 -1.2033 -0.3238
   10CHTO    H9 4200   6.946   9.502   1.305  2.1458  2.7410 -2.9214
   10CHTO    C4 4201   6.800   9.387   1.487 -0.3136  0.3122 -0.1115
   10CHTO   H17 4202   6.801   9.322   1.400  2.4464 -2.1495  1.6330
   10CHTO    O1 4203   6.700   9.361   1.585 -0.4176 -0.4563 -0.2835
   10CHTO    C5 4204   6.569   9.387   1.529 -0.2859  0.0288  0.2775
   10CHTO   H18 4205   6.561   9.321   1.442 -0.8730 -1.3506  1.3658
   10CHTO   C16 4206   6.468   9.336   1.631 -0.6135 -0.2479  0.0025
   10CHTO   O11 4207   6.486   9.373   1.767 -0.1591  0.4455  0.2308
   10CHTO    H5 4208   6.437   9.449   1.791 -0.4991 -0.0932  1.2482
   10CHTO    O3 4209   6.922   9.373   1.561  0.2482 -0.0921  0.0136
   10CHTO    C6 4210   6.969   9.233   1.574 -0.5394 -0.6431 -0.8149
   10CHTO   H19 4211   6.895   9.159   1.544 -1.3339 -1.2201  2.4151
   10CHTO    C8 4212   7.086   9.206   1.475  0.8520 -0.2682 -0.4541
   10CHTO   H21 4213   7.166   9.275   1.498  0.9682 -0.3307 -0.6704
   10CHTO    O7 4214   7.043   9.234   1.342 -0.1889  0.2355  0.2626
   10CHTO    H2 4215   7.006   9.320   1.347  0.2316  0.7436 -3.8067
   10CHTO   C12 4216   7.135   9.052   1.490  0.0782 -1.0975  0.5166
   10CHTO   H25 4217   7.043   8.999   1.457 -0.6625  0.7246 -0.4329
   10CHTO    N3 4218   7.257   9.023   1.406  0.0144 -0.0921  0.3002
   10CHTO   H12 4219   7.344   9.083   1.429 -1.4262  2.0022  0.3574
   10CHTO   H13 4220   7.222   9.041   1.305  2.2262 -1.9959 -0.8665
   10CHTO   C15 4221   7.157   9.024   1.644  0.0611  0.7336 -0.0502
   10CHTO   H28 4222   7.243   9.079   1.681  0.2920  0.1456  0.2819
   10CHTO   O10 4223   7.153   8.878   1.670 -0.0896  0.2419  0.4506
   10CHTO    H4 4224   7.237   8.839   1.658  0.7483  2.3499 -0.6345
   10CHTO    O5 4225   7.052   9.066   1.728 -0.1791 -0.1465  0.2987
   10CHTO   C10 4226   7.020   9.199   1.719 -0.1112 -0.7064 -0.1038
   10CHTO   H23 4227   7.113   9.252   1.742 -0.0583 -1.3700  1.2579
   10CHTO   C17 4228   6.908   9.230   1.815  0.3458  0.1052  0.2414
   10CHTO   O12 4229   6.927   9.195   1.951 -0.2980 -0.7409 -0.5610
   10CHTO    H6 4230   7.015   9.222   1.972 -0.6814 -0.3225  0.5161
   11CHTO  H203 4231   4.778   4.900   2.140 -0.9684 -1.0308 -1.9774
   11CHTO   O82 4232   4.857   4.885   2.091  0.3680  0.5673 -0.4074
   11CHTO  C123 4233   4.926   5.003   2.040  0.1788  0.5284 -0.0447
   11CHTO  H227 4234   4.979   5.049   2.125  0.7084  2.8329 -1.5898
   11CHTO   O77 4235   5.022   4.947   1.949  0.1215  0.4152 -0.7622
   11CHTO  C118 4236   5.113   5.036   1.887 -0.2901  0.3246 -0.2752
   11CHTO  H222 4237   5.177   5.076   1.968 -1.7743  0.3197  0.9272
   11CHTO  C125 4238   5.205   4.960   1.775 -0.5144 -0.0069  0.2083
   11CHTO   O84 4239   5.300   4.883   1.847  0.5822 -0.2760  0.1031
   11CHTO  H205 4240   5.252   4.818   1.893 -0.2672  0.3469  0.1176
   11CHTO  C114 4241   5.036   5.138   1.811  0.8381 -0.4390 -0.4482
   11CHTO  H218 4242   4.975   5.087   1.736  1.3097 -0.3934 -0.8640
   11CHTO  C116 4243   4.922   5.206   1.895 -0.1308 -0.7429  0.2868
   11CHTO  H220 4244   4.973   5.282   1.958 -2.0244  0.3627  0.5086
   11CHTO   O79 4245   4.834   5.285   1.812 -0.0738  0.0791 -0.3154
   11CHTO  H201 4246   4.827   5.245   1.728  1.8356 -0.4971 -0.2251
   11CHTO  C120 4247   4.828   5.101   1.973  0.2812 -0.4002 -0.1114
   11CHTO  H224 4248   4.773   5.051   1.891 -0.8092  1.3734 -0.4926
   11CHTO   N21 4249   4.740   5.170   2.065 -0.0692  0.2355  0.5886
   11CHTO  H211 4250   4.755   5.120   2.160  2.2302  1.2672  0.8141
   11CHTO  H212 4251   4.766   5.272   2.088  0.9227 -0.0858  0.9243
   11CHTO   O75 4252   5.133   5.232   1.750  0.0088 -0.2615 -0.2176
   11CHTO  C112 4253   5.201   5.350   1.831  0.2592 -0.0192 -0.2530
   11CHTO  H216 4254   5.224   5.311   1.931  0.5164 -0.8867 -0.6449
   11CHTO   O73 4255   5.104   5.461   1.830 -0.0565 -0.1461 -0.3890
   11CHTO  C113 4256   5.145   5.554   1.926  0.3468  0.2376  0.3097
   11CHTO  H217 4257   5.171   5.504   2.022 -0.1809  0.4557  0.5669
   11CHTO  C124 4258   5.031   5.649   1.955 -0.1076 -0.4909 -0.8891
   11CHTO   O83 4259   4.907   5.587   1.998  0.4326 -0.3314 -0.5930
   11CHTO  H204 4260   4.862   5.533   1.936  0.5250 -0.3714 -0.6253
   11CHTO  C109 4261   5.267   5.635   1.865 -0.2175  0.1659 -0.9449
   11CHTO  H213 4262   5.223   5.688   1.780 -2.8531  0.1409  0.3403
   11CHTO  C110 4263   5.380   5.541   1.832 -0.0748  0.2220  1.0601
   11CHTO  H214 4264   5.437   5.510   1.920  2.8235 -2.5374 -1.6233
   11CHTO   O78 4265   5.474   5.612   1.747 -0.7078  0.2840  0.9622
   11CHTO  H200 4266   5.473   5.704   1.761 -1.3300 -0.0862  3.6214
   11CHTO  C111 4267   5.324   5.413   1.756 -0.4053  0.7778 -0.0065
   11CHTO  H215 4268   5.279   5.444   1.661  2.1924  0.4559 -1.3859
   11CHTO   N19 4269   5.429   5.310   1.727 -0.0698 -0.6217  0.9874
   11CHTO  H207 4270   5.383   5.231   1.669  0.1378 -0.4978  0.6559
   11CHTO  H208 4271   5.519   5.343   1.679  0.2430 -2.1268  0.5052
   11CHTO   O74 4272   5.316   5.737   1.968 -0.7824 -0.5188 -0.1919
   11CHTO  C115 4273   5.322   5.886   1.911 -0.2464  0.2008  0.7759
   11CHTO  H219 4274   5.285   5.889   1.809 -0.2529 -0.6714  0.7460
   11CHTO   O76 4275   5.236   5.990   1.996 -0.0624  0.1243 -0.2957
   11CHTO  C122 4276   5.267   5.992   2.136 -0.0859  0.6968 -0.4899
   11CHTO  H226 4277   5.227   5.904   2.186  1.7373  0.0042 -0.2013
   11CHTO  C126 4278   5.192   6.112   2.205  0.6969 -0.3463 -0.0323
   11CHTO   O85 4279   5.257   6.236   2.171  0.5062 -0.5619  0.4438
   11CHTO  H206 4280   5.277   6.284   2.249  0.1240 -1.4403  1.0914
   11CHTO  C121 4281   5.425   5.974   2.162 -0.2442  0.0395  0.6221
   11CHTO  H225 4282   5.451   6.037   2.250 -3.1362 -1.8810  2.9256
   11CHTO   O81 4283   5.461   5.847   2.201 -0.6855 -0.0123  0.6307
   11CHTO  H202 4284   5.388   5.787   2.193 -1.7338  1.3954 -0.6924
   11CHTO  C119 4285   5.505   6.024   2.039 -0.1529 -0.3373 -0.2486
   11CHTO  H223 4286   5.474   6.124   2.008  0.0870 -0.2895 -0.3326
   11CHTO  C117 4287   5.472   5.939   1.915  0.5648  0.4821 -0.4493
   11CHTO  H221 4288   5.526   5.844   1.912  0.5941  0.3998  2.1977
   11CHTO   N20 4289   5.512   6.011   1.792  0.2884 -0.6401  0.1836
   11CHTO  H209 4290   5.589   5.958   1.738  0.3743 -0.0541 -0.2744
   11CHTO  H210 4291   5.428   6.002   1.724 -1.1147 -0.6806  1.8679
   11CHTO   O80 4292   5.665   6.051   2.061 -0.0591 -0.2490  0.3648
   11CHTO  C103 4293   5.716   6.202   2.082 -0.5091 -0.0676 -0.2260
   11CHTO  H190 4294   5.825   6.205   2.071 -0.3581  0.5650  1.3399
   11CHTO  C101 4295   5.658   6.313   1.992 -0.2619  0.4897  0.5662
   11CHTO  H188 4296   5.549   6.308   1.991 -0.3032  1.1556 -1.6993
   11CHTO   O68 4297   5.693   6.275   1.839  0.2390  0.0084 -0.2979
   11CHTO  H168 4298   5.736   6.192   1.832  1.2746  0.3800  1.3505
   11CHTO   C99 4299   5.688   6.470   2.037  0.1773  0.6533 -0.0950
   11CHTO  H186 4300   5.797   6.482   2.019  0.2864  0.7872  0.6434
   11CHTO   N17 4301   5.621   6.573   1.948 -0.7088  0.1315 -0.1732
   11CHTO  H174 4302   5.705   6.621   1.900  0.1376  0.3621  1.4977
   11CHTO  H175 4303   5.552   6.535   1.874  0.5870  1.1187 -1.9370
   11CHTO   C97 4304   5.661   6.484   2.190  0.3628  0.3459 -0.1078
   11CHTO  H184 4305   5.552   6.476   2.199  0.4496 -1.0860 -0.2456
   11CHTO   O64 4306   5.726   6.380   2.261  0.1271 -0.0101 -0.3132
   11CHTO  C104 4307   5.684   6.248   2.235 -0.2189  0.7119  0.6702
   11CHTO  H191 4308   5.578   6.254   2.258 -0.8590 -2.5273 -1.1240
   11CHTO  C108 4309   5.739   6.143   2.328 -0.8038 -0.3503 -0.2610
   11CHTO   O71 4310   5.694   6.157   2.465 -0.4591  0.0706  0.0530
   11CHTO  H171 4311   5.741   6.089   2.510  1.3239  1.0838 -0.2144
   11CHTO   O62 4312   5.707   6.610   2.234  0.2074  0.3273 -0.3178
   11CHTO   C91 4313   5.617   6.678   2.322  0.2985 -0.1838  0.1326
   11CHTO  H178 4314   5.521   6.650   2.279 -0.1994 -1.5521  2.0746
   11CHTO   C92 4315   5.633   6.827   2.296  0.3988  0.3722 -0.2807
   11CHTO  H179 4316   5.630   6.837   2.186 -0.3512  0.4648 -0.2509
   11CHTO   O66 4317   5.514   6.886   2.356 -0.3247 -0.8086  0.1681
   11CHTO  H166 4318   5.456   6.915   2.288 -2.0762  2.2865  2.8273
   11CHTO   C93 4319   5.768   6.887   2.360 -0.5348 -0.0393 -0.6133
   11CHTO  H180 4320   5.760   6.994   2.385 -1.4047 -0.8252  2.7349
   11CHTO   N16 4321   5.877   6.886   2.262  0.3750  0.4101 -0.1232
   11CHTO  H172 4322   5.962   6.948   2.283  0.5115  0.7794 -1.7176
   11CHTO  H173 4323   5.908   6.783   2.250  0.5335  0.3652  0.6463
   11CHTO   C94 4324   5.811   6.812   2.494 -0.3665  0.5544 -0.3278
   11CHTO  H181 4325   5.875   6.725   2.476 -2.3675 -1.6189  2.6283
   11CHTO   O61 4326   5.686   6.763   2.552 -0.8268 -0.2790  0.1830
   11CHTO   C95 4327   5.628   6.654   2.479 -0.1240 -0.4351  0.0327
   11CHTO  H182 4328   5.697   6.571   2.489 -0.9793 -0.9639  1.6292
   11CHTO  C106 4329   5.489   6.617   2.544 -0.3276 -0.0024  1.1861
   11CHTO   O69 4330   5.495   6.610   2.683 -0.3234  0.5130 -0.4968
   11CHTO  H169 4331   5.489   6.700   2.709 -2.6078 -0.1356  1.4640
   11CHTO   O63 4332   5.873   6.903   2.604 -0.2610  0.3316 -0.1095
   11CHTO   C96 4333   5.980   6.828   2.693  0.5168 -0.2975 -0.9467
   11CHTO  H183 4334   6.012   6.735   2.644  1.2897  0.4248 -1.8241
   11CHTO   C98 4335   5.948   6.805   2.842 -0.2738  0.0427  0.3733
   11CHTO  H185 4336   5.896   6.895   2.877  0.7303  0.1414  1.6437
   11CHTO   O67 4337   5.842   6.709   2.850  0.3447  0.0104 -0.1408
   11CHTO  H167 4338   5.767   6.734   2.799  2.0567  0.0864 -2.7536
   11CHTO  C102 4339   6.069   6.761   2.928 -0.3549 -1.1482  0.3117
   11CHTO  H189 4340   6.096   6.660   2.894  3.2188  0.0987 -0.8182
   11CHTO   N18 4341   6.038   6.750   3.070  0.4110 -0.1222 -0.3679
   11CHTO  H176 4342   5.961   6.679   3.096 -0.3030  0.6611 -0.3340
   11CHTO  H177 4343   6.034   6.843   3.124  0.9731 -0.7514  0.7729
   11CHTO  C105 4344   6.187   6.857   2.891  0.6436 -0.1233  0.0349
   11CHTO  H192 4345   6.168   6.962   2.917 -1.1371 -0.7789  1.4542
   11CHTO   O65 4346   6.220   6.848   2.749 -0.3177 -0.7180 -0.3791
   11CHTO  C100 4347   6.108   6.916   2.688  0.0708  0.2861 -0.0655
   11CHTO  H187 4348   6.084   7.013   2.736  1.4622  1.3985 -1.5812
   11CHTO  C107 4349   6.148   6.955   2.545 -0.4142  0.1712  0.0487
   11CHTO   O70 4350   6.260   7.038   2.539  0.2277 -1.0726  0.0724
   11CHTO  H170 4351   6.238   7.104   2.475  0.9873 -0.9543 -0.0675
   11CHTO   O57 4352   6.301   6.805   2.975 -0.0049  0.0602 -0.8437
   11CHTO   C85 4353   6.368   6.873   3.079 -0.1821  0.6549 -0.1050
   11CHTO  H157 4354   6.298   6.946   3.123 -2.3533 -0.7659 -1.1290
   11CHTO   C83 4355   6.474   6.961   3.004  0.2828 -0.3062  0.3461
   11CHTO  H155 4356   6.422   7.040   2.949 -0.6700 -1.1514  0.0162
   11CHTO   O56 4357   6.546   6.887   2.902 -0.3509  0.0575 -0.5618
   11CHTO  H135 4358   6.626   6.848   2.933 -1.7392 -1.7981  0.8167
   11CHTO   C81 4359   6.570   7.028   3.105  0.3317 -0.4862  0.1752
   11CHTO  H153 4360   6.508   7.083   3.176  0.6560  1.0619 -0.7197
   11CHTO   N14 4361   6.661   7.125   3.042  0.1520  0.4823 -0.3100
   11CHTO  H141 4362   6.749   7.142   3.100  0.6063 -1.3064 -0.4752
   11CHTO  H142 4363   6.689   7.083   2.948 -2.5404  2.0330 -1.8967
   11CHTO   C79 4364   6.644   6.916   3.186 -0.0083  0.1373  0.1234
   11CHTO  H151 4365   6.721   6.967   3.245  0.5266  0.1170 -0.5526
   11CHTO   O52 4366   6.548   6.853   3.267 -0.0423  0.4140 -0.4815
   11CHTO   C86 4367   6.441   6.785   3.188 -0.3794 -0.0268  0.0973
   11CHTO  H158 4368   6.496   6.695   3.155  0.2924  0.8037 -1.0538
   11CHTO   C90 4369   6.334   6.732   3.289  0.2684  0.5487 -0.4450
   11CHTO   O60 4370   6.312   6.809   3.410  0.0930 -0.0848  0.1753
   11CHTO  H138 4371   6.284   6.754   3.481 -1.1158 -1.4493 -1.3365
   11CHTO   O50 4372   6.716   6.815   3.113 -0.4422 -0.0942  0.2655
   11CHTO   C73 4373   6.834   6.733   3.133 -0.0983  0.6518 -0.2529
   11CHTO  H145 4374   6.813   6.671   3.222 -1.1729  0.5271 -0.5814
   11CHTO   C74 4375   6.959   6.820   3.168  0.0409 -0.1724  0.2862
   11CHTO  H146 4376   6.930   6.879   3.256  2.3925 -1.1222  1.7526
   11CHTO   O54 4377   7.064   6.737   3.204 -0.0803 -0.0215  0.5079
   11CHTO  H133 4378   7.071   6.656   3.158  2.0257 -0.9900  2.4080
   11CHTO   C75 4379   6.998   6.914   3.042 -0.3177 -0.8977 -0.3126
   11CHTO  H147 4380   6.909   6.973   3.017  1.4327  1.4891 -1.0463
   11CHTO   N13 4381   7.103   7.015   3.078  1.0551  0.1452 -0.2266
   11CHTO  H139 4382   7.185   6.972   3.132  0.1709 -2.8276 -1.1725
   11CHTO  H140 4383   7.048   7.082   3.142  0.1179 -0.5083 -0.3418
   11CHTO   C76 4384   7.025   6.816   2.925 -0.0457 -0.1308  0.3969
   11CHTO  H148 4385   7.113   6.761   2.959 -2.0738 -3.7597  0.0581
   11CHTO   O49 4386   6.913   6.733   2.896 -0.0316  0.1096  0.1759
   11CHTO   C77 4387   6.867   6.646   3.007  0.2890  0.0568 -0.7215
   11CHTO  H149 4388   6.939   6.571   3.039 -0.5301  0.1674  1.4497
   11CHTO   C88 4389   6.737   6.564   2.972  0.4848 -0.1778 -0.0006
   11CHTO   O58 4390   6.761   6.490   2.847  0.0528  0.1717 -0.9068
   11CHTO  H136 4391   6.831   6.427   2.847  0.9830  1.1342  1.7885
   11CHTO   O51 4392   7.047   6.902   2.794 -0.4485 -0.1735 -0.1040
   11CHTO   C78 4393   7.082   6.828   2.645  0.0031 -0.2671  0.0634
   11CHTO  H150 4394   7.077   6.719   2.662  2.5831 -0.1184  2.0511
   11CHTO   C80 4395   7.230   6.854   2.603 -0.0175  0.6991  0.7197
   11CHTO  H152 4396   7.240   6.963   2.583 -2.2407  1.0218  1.2876
   11CHTO   O55 4397   7.324   6.826   2.709 -0.3307  0.0097  0.3833
   11CHTO  H134 4398   7.287   6.782   2.783  0.7223  0.3488  1.1128
   11CHTO   C84 4399   7.264   6.782   2.466  0.2116 -0.1628 -0.1396
   11CHTO  H156 4400   7.254   6.675   2.478  0.7611 -0.2704 -0.6594
   11CHTO   N15 4401   7.403   6.815   2.407  0.2757  0.4463  0.1284
   11CHTO  H143 4402   7.403   6.764   2.313 -0.1667  1.8468 -0.6438
   11CHTO  H144 4403   7.402   6.920   2.389 -1.1370  0.5227  0.5956
   11CHTO   C87 4404   7.161   6.845   2.365 -0.0319 -0.4213  0.4258
   11CHTO  H159 4405   7.186   6.950   2.355  0.3817 -0.6316 -1.0114
   11CHTO   O53 4406   7.008   6.821   2.415 -0.2464  0.0378  0.5865
   11CHTO   C82 4407   6.982   6.877   2.540 -0.0500 -0.9945 -0.7156
   11CHTO  H154 4408   6.977   6.986   2.534 -1.6421 -1.1006 -1.6802
   11CHTO   C89 4409   6.846   6.828   2.564  0.7076  0.0325  0.4580
   11CHTO   O59 4410   6.783   6.881   2.681 -0.3319 -0.6885 -0.2470
   11CHTO  H137 4411   6.707   6.832   2.705 -0.6183  0.6992  1.8193
   11CHTO   O45 4412   7.181   6.791   2.206 -0.7977 -0.2657  0.8010
   11CHTO   C67 4413   7.070   6.788   2.118  0.1289 -0.4895  0.1035
   11CHTO  H124 4414   6.986   6.739   2.165  0.2129 -1.5193 -0.8140
   11CHTO   C65 4415   7.033   6.937   2.076 -0.1865 -0.6602  0.1859
   11CHTO  H122 4416   7.113   6.996   2.120  0.0061 -0.7469 -0.0491
   11CHTO   O44 4417   6.913   6.974   2.145 -0.4695  0.1492  0.3004
   11CHTO  H102 4418   6.891   7.063   2.128  0.5620  0.1325 -1.2747
   11CHTO   C63 4419   7.042   6.968   1.924 -0.3364 -0.2455  0.9008
   11CHTO  H120 4420   7.147   6.949   1.898  0.2515  1.8049  1.7194
   11CHTO   N11 4421   7.023   7.102   1.875 -0.2191  0.1739  0.4086
   11CHTO  H108 4422   6.929   7.150   1.891  0.5902  1.1407  2.5189
   11CHTO  H109 4423   7.048   7.109   1.771  0.6379 -3.7466  0.2999
   11CHTO   C61 4424   6.970   6.866   1.842  0.6033  0.1482 -0.1019
   11CHTO  H118 4425   7.007   6.872   1.738  1.9285  1.9727  0.4567
   11CHTO   O40 4426   6.988   6.730   1.886  0.3004 -0.3361 -0.0157
   11CHTO   C68 4427   7.101   6.711   1.982 -0.1024  0.5761 -0.5448
   11CHTO  H125 4428   7.194   6.746   1.934  0.9915  0.8043  1.6526
   11CHTO   C72 4429   7.122   6.565   2.009  0.6714  0.4643  0.9814
   11CHTO   O48 4430   6.994   6.511   2.043 -0.0656  0.5590  0.7612
   11CHTO  H105 4431   7.001   6.420   2.068 -1.0002 -0.2823 -1.7983
   11CHTO   O38 4432   6.828   6.892   1.846  0.0547 -0.2527 -0.1311
   11CHTO   C55 4433   6.744   6.822   1.749  0.3580  0.1726 -0.1789
   11CHTO  H112 4434   6.805   6.743   1.702 -1.1677 -0.9644 -0.2655
   11CHTO   C56 4435   6.702   6.929   1.649 -0.5467  0.5925 -0.0349
   11CHTO  H113 4436   6.647   6.999   1.714 -0.4121 -0.4393  1.2274
   11CHTO   O42 4437   6.817   6.984   1.578  0.3435 -0.1095 -0.3608
   11CHTO  H100 4438   6.804   7.077   1.582 -1.4780 -0.3304 -0.8682
   11CHTO   C57 4439   6.593   6.870   1.556 -0.4447  0.3958  0.3983
   11CHTO  H114 4440   6.659   6.812   1.492 -1.8750  0.7082 -1.4064
   11CHTO   N10 4441   6.523   6.967   1.473  0.6174  0.5047  0.0042
   11CHTO  H106 4442   6.462   6.937   1.389 -0.2895  1.2916  0.3691
   11CHTO  H107 4443   6.580   7.055   1.450  0.0418  0.8398 -0.1402
   11CHTO   C58 4444   6.489   6.780   1.624  0.1333  0.3088  0.2883
   11CHTO  H115 4445   6.414   6.841   1.679  0.2881  0.2963  0.5105
   11CHTO   O37 4446   6.543   6.688   1.723  0.4765  0.9295 -0.1677
   11CHTO   C59 4447   6.620   6.757   1.818 -0.4131 -0.5846 -0.3655
   11CHTO  H116 4448   6.555   6.826   1.870  0.1486 -1.0223  0.9321
   11CHTO   C70 4449   6.654   6.656   1.926 -0.3004  0.1735 -0.7766
   11CHTO   O46 4450   6.540   6.606   1.998 -1.1460  0.2026 -0.1556
   11CHTO  H103 4451   6.494   6.530   1.967  1.2083 -1.6895  0.7909
   11CHTO   O39 4452   6.423   6.693   1.499 -0.7325  0.6860  0.9996
   11CHTO   C60 4453   6.281   6.686   1.511 -0.1290 -0.6764 -0.2321
   11CHTO  H117 4454   6.245   6.729   1.605 -1.3652 -1.3027 -0.4058
   11CHTO   C62 4455   6.211   6.762   1.398 -0.8133  0.0894  0.2842
   11CHTO  H119 4456   6.250   6.865   1.412  2.2282 -0.8274 -1.0389
   11CHTO   O43 4457   6.251   6.700   1.272 -0.0651  0.2527  0.0545
   11CHTO  H101 4458   6.224   6.744   1.193  1.8545  0.2652 -0.6207
   11CHTO   C66 4459   6.051   6.763   1.427 -0.0898  0.1455  0.2434
   11CHTO  H123 4460   6.034   6.814   1.522 -0.8841  0.5687 -0.1250
   11CHTO   N12 4461   5.970   6.838   1.332 -0.8244  0.1443 -0.1416
   11CHTO  H110 4462   5.931   6.932   1.369  1.6703  1.0712  0.3103
   11CHTO  H111 4463   5.906   6.767   1.282  0.0620 -0.9702  0.2866
   11CHTO   C69 4464   5.999   6.616   1.428  0.1835 -0.8598  0.0931
   11CHTO  H126 4465   6.030   6.558   1.338  2.4269 -0.7594  0.7837
   11CHTO   O41 4466   6.078   6.536   1.552  0.0349 -0.3194 -1.0267
   11CHTO   C64 4467   6.233   6.536   1.516  0.3897  0.4951 -0.3547
   11CHTO  H121 4468   6.253   6.477   1.425 -0.6457  1.3274 -1.1335
   11CHTO   C71 4469   6.303   6.454   1.633  0.3191  0.1093  0.3835
   11CHTO   O47 4470   6.309   6.531   1.757  0.4270  0.0894  0.8511
   11CHTO  H104 4471   6.225   6.549   1.796  0.2568 -0.2786  0.6572
   11CHTO   O34 4472   5.826   6.601   1.438  0.1967  0.1020  0.1836
   11CHTO   C49 4473   5.722   6.604   1.533 -0.1839 -0.7429  0.1685
   11CHTO   H91 4474   5.771   6.644   1.622  2.0125 -1.3660 -0.7145
   11CHTO   C47 4475   5.666   6.459   1.568 -0.5888  0.2484 -0.6019
   11CHTO   H89 4476   5.613   6.476   1.664 -2.1512 -0.8577 -1.2359
   11CHTO   O33 4477   5.782   6.373   1.592  0.2947 -0.3119 -0.3168
   11CHTO   H70 4478   5.798   6.309   1.526  2.0030 -1.1828  0.9071
   11CHTO   C45 4479   5.563   6.411   1.458  0.6054  1.0339 -0.8660
   11CHTO   H87 4480   5.617   6.406   1.363 -0.3820  2.4881 -1.5073
   11CHTO    N8 4481   5.518   6.270   1.480 -0.2251 -0.3126  0.0640
   11CHTO   H75 4482   5.587   6.198   1.440  2.8409  2.1413  0.7505
   11CHTO   H76 4483   5.509   6.248   1.586  0.0783 -0.2729  0.0979
   11CHTO   C43 4484   5.454   6.518   1.437 -0.2367 -0.8476 -0.2586
   11CHTO   H85 4485   5.387   6.479   1.360  0.2731  0.3846 -1.3505
   11CHTO   O29 4486   5.514   6.644   1.397  0.1568  0.2294 -0.2736
   11CHTO   C50 4487   5.609   6.701   1.491  0.2227 -0.2683  0.2306
   11CHTO   H92 4488   5.651   6.787   1.438  0.0454 -0.2337  0.1456
   11CHTO   C54 4489   5.549   6.770   1.618  0.6125  0.1058  0.2861
   11CHTO   O36 4490   5.447   6.863   1.574  0.1290  0.0484 -0.1249
   11CHTO   H72 4491   5.481   6.950   1.565  3.2837 -0.9972  0.8814
   11CHTO   O27 4492   5.370   6.538   1.551 -0.0643  0.0871 -0.4641
   11CHTO   C37 4493   5.237   6.524   1.605 -0.6521 -0.2787  0.6430
   11CHTO   H79 4494   5.211   6.606   1.673  3.6622  0.8448  1.1141
   11CHTO   C38 4495   5.143   6.526   1.486  0.0085  0.0950 -0.2241
   11CHTO   H80 4496   5.187   6.460   1.410  2.9229  0.3554  1.1925
   11CHTO   O31 4497   5.148   6.660   1.451 -0.4702  0.0380  0.3781
   11CHTO   H68 4498   5.195   6.662   1.370 -2.7413  0.5316 -0.9666
   11CHTO   C39 4499   4.994   6.481   1.521 -0.1437 -0.4279 -0.0696
   11CHTO   H81 4500   4.941   6.564   1.567  1.0995  0.5579 -0.3843
   11CHTO    N7 4501   4.920   6.454   1.400 -0.1663  0.0606  0.1306
   11CHTO   H73 4502   4.832   6.396   1.426  0.8924 -1.2616  0.8332
   11CHTO   H74 4503   4.896   6.553   1.363  0.1072  1.1583  2.8116
   11CHTO   C40 4504   4.994   6.354   1.617  0.5535  0.9493 -0.8719
   11CHTO   H82 4505   5.021   6.263   1.564  2.5040  1.4401 -0.7448
   11CHTO   O26 4506   5.087   6.378   1.722  0.1912  0.1505  0.3197
   11CHTO   C41 4507   5.225   6.384   1.678 -0.5173 -0.3793 -0.0417
   11CHTO   H83 4508   5.237   6.296   1.614  0.2124  0.3848 -0.9625
   11CHTO   C52 4509   5.327   6.379   1.800  0.5800 -0.9712  0.0334
   11CHTO   O35 4510   5.310   6.273   1.864  0.6823 -0.6325  0.0681
   11CHTO   H71 4511   5.360   6.206   1.820 -1.0955 -1.0832 -1.3349
   11CHTO   O28 4512   4.875   6.336   1.699  0.2543  0.3924  0.4707
   11CHTO   C42 4513   4.760   6.248   1.677  0.3311  0.2427  0.7440
   11CHTO   H84 4514   4.770   6.205   1.577 -1.6988  0.9582  0.2092
   11CHTO   C44 4515   4.628   6.320   1.681 -0.2920  0.9036  0.0978
   11CHTO   H86 4516   4.620   6.372   1.776  0.6934 -1.0486  1.2912
   11CHTO   O32 4517   4.631   6.423   1.579 -0.2030  0.4953 -0.4444
   11CHTO   H69 4518   4.641   6.508   1.618  3.9357 -0.4640  0.7661
   11CHTO   C48 4519   4.510   6.209   1.662 -0.8810  0.0757 -0.6230
   11CHTO   H90 4520   4.519   6.172   1.560 -0.0653 -2.4410  0.3096
   11CHTO    N9 4521   4.373   6.276   1.675 -0.0470  0.0183  0.1660
   11CHTO   H77 4522   4.362   6.346   1.593  3.9971 -0.5393 -0.9867
   11CHTO   H78 4523   4.360   6.321   1.771  0.2061  2.1271 -0.7654
   11CHTO   C51 4524   4.527   6.092   1.762 -0.9884  0.3392 -1.1611
   11CHTO   H93 4525   4.502   6.137   1.858 -1.1978 -1.9746 -0.0961
   11CHTO   O30 4526   4.661   6.038   1.755  0.4792 -0.3685  0.2339
   11CHTO   C46 4527   4.768   6.138   1.790  0.5320 -0.8083  0.6222
   11CHTO   H88 4528   4.743   6.182   1.886  0.1941 -0.7833  0.5228
   11CHTO   C53 4529   4.904   6.073   1.801 -0.1996 -0.0611  0.2772
   11CHTO   O72 4530   4.912   5.973   1.899 -0.0266  0.0151  0.4520
   11CHTO  H199 4531   4.929   6.010   1.984 -0.9887  2.5967 -0.4362
   11CHTO   O22 4532   4.449   5.975   1.724  0.1228  0.4268 -0.2468
   11CHTO   C31 4533   4.397   5.889   1.832  0.0720 -0.1412  0.5406
   11CHTO   H59 4534   4.464   5.910   1.918 -0.0597 -0.0355  0.6161
   11CHTO   C29 4535   4.258   5.908   1.874  0.8836 -0.0677 -0.0146
   11CHTO   H57 4536   4.194   5.894   1.785  2.7767  0.1866 -1.4519
   11CHTO   O21 4537   4.258   6.049   1.913 -0.2606 -0.0228  0.1303
   11CHTO   H37 4538   4.183   6.097   1.884 -0.4228 -1.0359 -1.1782
   11CHTO   C27 4539   4.207   5.812   1.993  0.0516  0.0655 -0.2911
   11CHTO   H55 4540   4.267   5.829   2.083 -1.9552  1.5565  0.8308
   11CHTO    N5 4541   4.065   5.835   2.031 -0.7043 -0.0963  0.1347
   11CHTO   H43 4542   4.011   5.815   1.939 -1.2388  1.0449  0.1921
   11CHTO   H44 4543   4.045   5.757   2.102 -1.7881  0.3555  0.3302
   11CHTO   C25 4544   4.227   5.668   1.938 -0.3236  0.1517 -0.3324
   11CHTO   H53 4545   4.170   5.664   1.844 -3.5878  4.4433  1.2932
   11CHTO   O17 4546   4.364   5.648   1.901  0.1043 -0.2503  0.0882
   11CHTO   C32 4547   4.419   5.730   1.802 -0.1164  0.1567 -0.1462
   11CHTO   H60 4548   4.372   5.708   1.706  1.2612 -1.6430 -0.4399
   11CHTO   C36 4549   4.563   5.691   1.799 -0.0426  0.0720  0.4993
   11CHTO   O25 4550   4.674   5.762   1.730 -0.5175 -0.3927 -0.4006
   11CHTO   H40 4551   4.656   5.780   1.640 -0.0642  0.6301 -0.2963
   11CHTO   O15 4552   4.206   5.562   2.056 -0.2295  0.6740 -0.0652
   11CHTO   C19 4553   4.242   5.418   2.064 -0.8000 -0.1267 -0.4068
   11CHTO   H47 4554   4.289   5.401   1.966 -0.7164  3.3667 -1.0225
   11CHTO   C20 4555   4.338   5.368   2.185 -0.0384 -0.5097  0.2360
   11CHTO   H48 4556   4.296   5.398   2.282  1.3091  0.4296  0.5475
   11CHTO   O19 4557   4.466   5.432   2.175 -0.6038  0.5167 -0.7863
   11CHTO   H35 4558   4.517   5.379   2.117 -3.1606 -1.4868 -1.2995
   11CHTO   C21 4559   4.362   5.211   2.190  0.4025 -0.0561  0.5407
   11CHTO   H49 4560   4.430   5.185   2.108 -1.0576  1.4129 -1.1695
   11CHTO    N4 4561   4.416   5.166   2.319 -0.1394  0.3202 -0.7928
   11CHTO   H41 4562   4.420   5.058   2.325 -0.6074  0.4022  2.1643
   11CHTO   H42 4563   4.515   5.206   2.336  0.6133 -1.0681 -1.8393
   11CHTO   C22 4564   4.232   5.135   2.155  0.1775 -0.2981  0.0570
   11CHTO   H50 4565   4.171   5.123   2.245  0.5502 -0.3849  0.2970
   11CHTO   O14 4566   4.151   5.192   2.044  0.8670 -0.1155 -0.1952
   11CHTO   C23 4567   4.116   5.332   2.064 -0.0032  0.1980  0.0161
   11CHTO   H51 4568   4.064   5.336   2.161  1.8030  1.9978  0.9337
   11CHTO   C34 4569   4.012   5.364   1.957  0.5633 -0.1075  0.0608
   11CHTO   O23 4570   3.897   5.281   1.979  0.5975 -0.1940 -0.6385
   11CHTO   H38 4571   3.825   5.298   1.922  0.5443 -2.3618 -1.2750
   11CHTO   O16 4572   4.270   4.999   2.114 -0.2670  0.1321  0.8520
   11CHTO   C24 4573   4.155   4.910   2.078 -0.0262 -0.6845 -0.8600
   11CHTO   H52 4574   4.061   4.964   2.070  0.6955  0.5761 -0.9227
   11CHTO   C26 4575   4.143   4.801   2.184 -0.0151 -0.0139 -1.2082
   11CHTO   H54 4576   4.235   4.740   2.190  0.2948  0.5989  0.5038
   11CHTO   O20 4577   4.126   4.861   2.314 -0.1439 -0.4237  0.1547
   11CHTO   H36 4578   4.119   4.797   2.382 -0.8436 -0.7748 -0.2416
   11CHTO   C30 4579   4.028   4.701   2.161 -0.5784 -0.0949  0.1389
   11CHTO   H58 4580   3.930   4.751   2.164 -0.5654  0.1835 -2.7657
   11CHTO    N6 4581   4.019   4.594   2.266 -0.0633 -0.3626  0.0365
   11CHTO   H45 4582   3.980   4.638   2.357  0.5580  1.1022 -0.3912
   11CHTO   H46 4583   4.113   4.547   2.291 -0.1333  1.2557  3.7935
   11CHTO   C33 4584   4.043   4.640   2.018  0.7368  0.3954 -0.1130
   11CHTO   H61 4585   4.135   4.579   2.013  0.8687  0.6049 -0.2789
   11CHTO   O18 4586   4.056   4.751   1.929  0.0621 -0.3298  0.5410
   11CHTO   C28 4587   4.175   4.836   1.943 -0.0011  0.2140  0.4809
   11CHTO   H56 4588   4.260   4.768   1.954  0.3755  0.4146 -1.0497
   11CHTO   C35 4589   4.176   4.938   1.820 -0.2684  0.0540 -0.2335
   11CHTO   O24 4590   4.220   4.862   1.708 -0.8853 -1.0107  0.5339
   11CHTO   H39 4591   4.142   4.817   1.684 -1.2694 -0.6072  1.0085
   11CHTO    O9 4592   3.942   4.549   1.974  0.5229  0.3139  0.4914
   11CHTO   C13 4593   3.793   4.601   1.962 -0.3702  0.0091  0.3970
   11CHTO   H26 4594   3.782   4.684   2.035 -0.5114  0.4318 -0.1062
   11CHTO   C11 4595   3.691   4.484   1.995 -0.4940  0.3819 -0.0862
   11CHTO   H24 4596   3.724   4.459   2.097 -0.2701 -1.8664 -0.6740
   11CHTO    O8 4597   3.719   4.364   1.917  0.0356  0.4969  0.5165
   11CHTO    H3 4598   3.783   4.304   1.951 -0.2756  1.5764  3.1381
   11CHTO    C9 4599   3.550   4.549   1.978 -1.6386  0.3340 -0.1564
   11CHTO   H22 4600   3.542   4.621   2.060 -2.2645 -0.3494  0.3896
   11CHTO    N2 4601   3.442   4.449   2.006  0.6232 -0.0144 -0.4370
   11CHTO   H10 4602   3.409   4.395   1.919 -0.5644  4.3069 -2.8693
   11CHTO   H11 4603   3.359   4.508   2.041  0.9956  0.6626 -0.6820
   11CHTO    C7 4604   3.529   4.638   1.847 -0.0784 -0.1468  0.3722
   11CHTO   H20 4605   3.528   4.744   1.880 -1.3186 -0.7848  2.4211
   11CHTO    O4 4606   3.641   4.612   1.756  0.1644 -0.1790  0.8131
   11CHTO   C14 4607   3.762   4.663   1.811  0.3651  0.0971  0.0780
   11CHTO   H27 4608   3.758   4.774   1.814 -0.7407  0.2092 -3.2706
   11CHTO   C18 4609   3.871   4.622   1.713  0.3198 -0.0379  0.0059
   11CHTO   O13 4610   3.871   4.680   1.580  0.6246 -0.2480 -0.3777
   11CHTO    H7 4611   3.781   4.695   1.556  1.0646  1.5123 -1.0204
   11CHTO    O2 4612   3.389   4.614   1.768  0.9309 -0.2768  0.4287
   11CHTO    C1 4613   3.375   4.665   1.634 -0.1296  0.0849  0.0128
   11CHTO   H14 4614   3.455   4.617   1.574 -1.1833 -0.9603 -0.5852
   11CHTO    C2 4615   3.385   4.820   1.625  0.4092 -0.9179 -0.0153
   11CHTO   H15 4616   3.316   4.855   1.703  0.3247  0.8775 -0.8656
   11CHTO    O6 4617   3.515   4.875   1.649  0.0375 -0.2541 -0.1811
   11CHTO    H1 4618   3.556   4.848   1.729 -0.8918 -1.9032 -0.2559
   11CHTO    C3 4619   3.344   4.866   1.476  0.3509 -0.0764  0.3469
   11CHTO   H16 4620   3.421   4.823   1.410 -1.8057 -1.2996 -1.4373
   11CHTO    N1 4621   3.339   5.018   1.461  0.2812 -0.9834 -0.7679
   11CHTO    H8 4622   3.425   5.059   1.512 -0.3706 -2.0767  1.2430
   11CHTO    H9 4623   3.250   5.062   1.504  2.7900  1.7076  1.8812
   11CHTO    C4 4624   3.211   4.802   1.428 -0.8611  0.3760  0.4508
   11CHTO   H17 4625   3.127   4.861   1.466 -0.7890  1.3114 -0.8052
   11CHTO    O1 4626   3.207   4.665   1.448  0.0797 -0.3661 -0.0738
   11CHTO    C5 4627   3.230   4.622   1.586  0.2062  1.2602  0.1843
   11CHTO   H18 4628   3.159   4.655   1.663 -2.2005 -1.4692 -0.7742
   11CHTO   C16 4629   3.215   4.469   1.567 -0.1339 -0.7852 -0.9583
   11CHTO   O11 4630   3.188   4.407   1.694  0.1373 -0.0813  0.5372
   11CHTO    H5 4631   3.258   4.344   1.696  0.7864  0.6474  0.7990
   11CHTO    O3 4632   3.217   4.814   1.282  0.1176  0.7791  0.0243
   11CHTO    C6 4633   3.101   4.788   1.201  0.2642  0.1834 -0.7626
   11CHTO   H19 4634   3.021   4.732   1.249  1.0704 -0.7885 -0.5186
   11CHTO    C8 4635   3.051   4.927   1.154  0.1228  0.1352  0.7915
   11CHTO   H21 4636   3.135   4.976   1.105  0.0574  0.1409  0.6842
   11CHTO    O7 4637   3.007   5.005   1.275  0.6612  0.6320  0.4129
   11CHTO    H2 4638   2.998   5.095   1.253  0.6010  0.9158  1.5595
   11CHTO   C12 4639   2.931   4.905   1.054 -0.0810  0.7773  0.5095
   11CHTO   H25 4640   2.849   4.850   1.105 -0.8494 -0.0901 -1.6080
   11CHTO    N3 4641   2.886   5.047   1.016  0.4605 -0.5547  0.3008
   11CHTO   H12 4642   2.786   5.037   0.975  0.7765 -1.6603 -0.2180
   11CHTO   H13 4643   2.944   5.090   0.936 -0.3909 -2.1460 -1.2270
   11CHTO   C15 4644   2.985   4.813   0.940  0.2534 -0.5838 -0.1474
   11CHTO   H28 4645   3.052   4.877   0.883  0.0432  2.2062  2.6344
   11CHTO   O10 4646   2.872   4.758   0.857 -0.3049 -0.0659 -0.2036
   11CHTO    H4 4647   2.793   4.753   0.907 -0.3343 -1.7938 -0.4000
   11CHTO    O5 4648   3.041   4.692   0.989  0.1616 -0.5730 -0.0371
   11CHTO   C10 4649   3.147   4.697   1.081  0.8015 -0.0972 -0.1175
   11CHTO   H23 4650   3.231   4.752   1.040  1.2502 -0.7213 -0.0375
   11CHTO   C17 4651   3.188   4.560   1.138  0.2995  0.3849  0.0880
   11CHTO   O12 4652   3.254   4.468   1.051 -0.2611 -0.1758  0.1883
   11CHTO    H6 4653   3.196   4.402   1.020  2.2998 -1.9996 -0.9188
   12CHTO  H203 4654   5.076  11.095   0.258  2.8262 -1.0292  1.9327
   12CHTO   O82 4655   5.088  11.021   0.201 -0.1108  0.1516 -0.4155
   12CHTO  C123 4656   5.185  10.943   0.275  0.0308 -0.4742 -0.0884
   12CHTO  H227 4657   5.244  11.007   0.341  0.0768 -1.4839  0.8778
   12CHTO   O77 4658   5.091  10.854   0.343 -0.2059 -0.2433  0.1758
   12CHTO  C118 4659   5.148  10.745   0.418 -0.2145 -0.0341  0.3468
   12CHTO  H222 4660   5.209  10.801   0.491  0.7190  1.2042 -1.3448
   12CHTO  C125 4661   5.030  10.672   0.487  0.2261  0.0457  0.0863
   12CHTO   O84 4662   5.061  10.559   0.573  0.0400  0.0405 -0.0950
   12CHTO  H205 4663   4.984  10.519   0.610 -0.0022 -0.0110 -0.2403
   12CHTO  C114 4664   5.250  10.658   0.337  0.0191 -0.3183 -0.7960
   12CHTO  H218 4665   5.194  10.603   0.262 -1.4819  1.7861 -1.2320
   12CHTO  C116 4666   5.357  10.748   0.270  0.9177 -0.1930  0.3011
   12CHTO  H220 4667   5.426  10.802   0.339 -1.2360  1.3474  1.2924
   12CHTO   O79 4668   5.438  10.664   0.189 -0.0666  0.3035  0.5328
   12CHTO  H201 4669   5.386  10.602   0.141  0.4420  0.7076 -0.5727
   12CHTO  C120 4670   5.283  10.858   0.182 -0.5252  0.3262  0.1450
   12CHTO  H224 4671   5.229  10.794   0.110 -0.2601 -0.8156  0.9481
   12CHTO   N21 4672   5.375  10.935   0.095 -0.1576  0.6561  0.0842
   12CHTO  H211 4673   5.330  11.030   0.074 -0.6729 -0.1704 -2.7518
   12CHTO  H212 4674   5.464  10.937   0.156  0.8232 -2.5119 -1.0988
   12CHTO   O75 4675   5.289  10.558   0.438  0.1509  0.0401 -0.1921
   12CHTO  C112 4676   5.356  10.431   0.394 -0.2596  0.0423  0.3414
   12CHTO  H216 4677   5.465  10.444   0.381 -0.2582 -1.3948 -1.3327
   12CHTO   O73 4678   5.290  10.389   0.274 -0.2855  0.2460 -0.0520
   12CHTO  C113 4679   5.319  10.258   0.229 -0.3061 -0.8164 -0.0408
   12CHTO  H217 4680   5.428  10.247   0.211 -0.8636 -1.4663 -3.1753
   12CHTO  C124 4681   5.249  10.234   0.095 -0.1503  0.1416 -0.1066
   12CHTO   O83 4682   5.110  10.234   0.117 -0.2061 -0.2508  0.4613
   12CHTO  H204 4683   5.092  10.153   0.160  0.2004 -1.4232 -1.4936
   12CHTO  C109 4684   5.263  10.159   0.335  0.2996 -0.1239  0.0900
   12CHTO  H213 4685   5.160  10.195   0.352  0.6428  1.3984 -0.9148
   12CHTO  C110 4686   5.352  10.179   0.461  0.0975 -0.4378  0.4104
   12CHTO  H214 4687   5.458  10.159   0.448  1.1266  2.7267  3.3314
   12CHTO   O78 4688   5.315  10.089   0.561  0.3290 -0.4214 -0.4059
   12CHTO  H200 4689   5.222  10.080   0.569  0.1597  0.0754 -1.7717
   12CHTO  C111 4690   5.334  10.327   0.510  0.1361  0.4154  0.2635
   12CHTO  H215 4691   5.229  10.333   0.542 -0.9608 -1.0284 -2.7766
   12CHTO   N19 4692   5.422  10.356   0.629  0.0606  0.5277  0.0551
   12CHTO  H207 4693   5.373  10.442   0.672 -2.4221  0.0680 -1.7354
   12CHTO  H208 4694   5.413  10.271   0.695  0.2579  0.1189 -0.4380
   12CHTO   O74 4695   5.261  10.019   0.291  0.2914 -0.0118  0.0170
   12CHTO  C115 4696   5.131   9.949   0.226 -0.3356  0.1649  0.1080
   12CHTO  H219 4697   5.042  10.012   0.231 -0.3270  0.3743 -2.0730
   12CHTO   O76 4698   5.151   9.917   0.073  0.1805  0.3402  0.2114
   12CHTO  C122 4699   5.042   9.847   0.015  0.2113 -0.3591 -0.5471
   12CHTO  H226 4700   5.068   9.821  -0.088  1.2372  0.5417 -0.5330
   12CHTO  C126 4701   4.907   9.927   0.010  0.2609 -0.2518 -0.2384
   12CHTO   O85 4702   4.906  10.008  -0.107 -0.4653 -0.0596  0.0603
   12CHTO  H206 4703   4.834  10.067  -0.096  0.7710  1.4396  0.2291
   12CHTO  C121 4704   5.029   9.700   0.079  0.0923  0.4128  0.3292
   12CHTO  H225 4705   4.945   9.654   0.023 -0.0200  0.8075  0.1741
   12CHTO   O81 4706   5.141   9.614   0.052 -0.0621  0.1997  0.2461
   12CHTO  H202 4707   5.175   9.618  -0.035 -0.0132  0.1013  0.2599
   12CHTO  C119 4708   4.996   9.713   0.229  0.6505  0.0648 -0.1022
   12CHTO  H223 4709   4.909   9.778   0.231 -2.3928 -3.8787  0.7766
   12CHTO  C117 4710   5.103   9.811   0.304  0.4518 -0.2186  0.2586
   12CHTO  H221 4711   5.208   9.783   0.305  0.8514  1.0965  3.5889
   12CHTO   N20 4712   5.071   9.832   0.457  0.0757  0.6940  0.6756
   12CHTO  H209 4713   4.980   9.887   0.476 -1.0780 -1.1604  0.6066
   12CHTO  H210 4714   5.151   9.888   0.503 -0.1499  1.7123 -0.1586
   12CHTO   O80 4715   4.952   9.596   0.281  0.1095 -0.3700  0.1028
   12CHTO  C103 4716   4.778   9.577   0.310  0.0857  0.5274  0.7147
   12CHTO  H190 4717   4.727   9.667   0.346  1.1796  1.6937 -0.5836
   12CHTO  C101 4718   4.704   9.542   0.184 -0.1109 -0.1608 -0.1722
   12CHTO  H188 4719   4.756   9.462   0.131  2.9103 -0.1345  2.5670
   12CHTO   O68 4720   4.714   9.661   0.075  0.0092 -0.3246 -0.1929
   12CHTO  H168 4721   4.800   9.697   0.062 -0.3584  0.6031 -0.0353
   12CHTO   C99 4722   4.552   9.506   0.211 -0.1259  0.7624 -0.6048
   12CHTO  H186 4723   4.497   9.590   0.258  2.8532  1.7557  1.2312
   12CHTO   N17 4724   4.476   9.491   0.089 -0.1546  0.6160  0.5551
   12CHTO  H174 4725   4.372   9.485   0.115 -0.3535 -0.8714 -0.4747
   12CHTO  H175 4726   4.517   9.407   0.035  1.2240 -0.3393  3.0064
   12CHTO   C97 4727   4.549   9.381   0.313 -0.2033  0.2528 -0.3641
   12CHTO  H184 4728   4.603   9.298   0.266 -0.6250  1.3770 -2.9044
   12CHTO   O64 4729   4.620   9.425   0.435  0.1789 -0.0203 -0.2545
   12CHTO  C104 4730   4.760   9.458   0.418 -0.4476 -0.6491 -0.2146
   12CHTO  H191 4731   4.820   9.376   0.380  1.3596  0.4069  0.3416
   12CHTO  C108 4732   4.813   9.497   0.557 -1.0307  1.2230 -0.1125
   12CHTO   O71 4733   4.960   9.507   0.561 -0.1607  0.3962 -0.2209
   12CHTO  H171 4734   4.987   9.561   0.633  0.9324 -1.9877  1.2298
   12CHTO   O62 4735   4.413   9.346   0.353  0.4085 -0.2761  0.2439
   12CHTO   C91 4736   4.376   9.210   0.354 -0.1338 -0.3015  1.2641
   12CHTO  H178 4737   4.365   9.187   0.248 -1.5860 -0.0822  1.3598
   12CHTO   C92 4738   4.228   9.201   0.414 -0.3935  0.2184  0.4576
   12CHTO  H179 4739   4.165   9.272   0.359  1.6541  0.1256 -2.1310
   12CHTO   O66 4740   4.174   9.075   0.392  0.4518  0.2183 -0.8170
   12CHTO  H166 4741   4.233   9.004   0.409 -1.0101 -1.1688 -1.4069
   12CHTO   C93 4742   4.215   9.227   0.570 -0.3873 -0.0575  0.2149
   12CHTO  H180 4743   4.130   9.168   0.610 -1.7562  1.0858 -0.9416
   12CHTO   N16 4744   4.185   9.366   0.606  0.5015 -0.2399 -0.1960
   12CHTO  H172 4745   4.090   9.395   0.564 -0.9854 -1.3528  2.2945
   12CHTO  H173 4746   4.263   9.429   0.566  0.3731 -1.3639 -2.2933
   12CHTO   C94 4747   4.348   9.173   0.641  0.2863  0.2501  0.9390
   12CHTO  H181 4748   4.421   9.253   0.650  1.7128 -0.6603 -1.8084
   12CHTO   O61 4749   4.417   9.070   0.564  0.3027  0.5923  0.8317
   12CHTO   C95 4750   4.466   9.093   0.425 -0.1751  0.0288 -0.1405
   12CHTO  H182 4751   4.569   9.128   0.427 -0.4273  0.8231 -0.4314
   12CHTO  C106 4752   4.467   8.953   0.349 -0.1708 -0.3702  0.6388
   12CHTO   O69 4753   4.526   8.964   0.218 -0.6477 -0.2046 -0.2536
   12CHTO  H169 4754   4.603   9.016   0.227 -1.9001  2.2494 -2.8109
   12CHTO   O63 4755   4.305   9.109   0.782 -0.2188  0.5129 -0.1262
   12CHTO   C96 4756   4.404   9.044   0.856 -0.0611  0.3515  0.6358
   12CHTO  H183 4757   4.462   8.981   0.787  1.7881  2.6783  0.0059
   12CHTO   C98 4758   4.345   8.956   0.974  0.1129 -0.3638 -0.5878
   12CHTO  H185 4759   4.238   8.933   0.964  0.6749 -3.1107 -0.8065
   12CHTO   O67 4760   4.413   8.833   0.991  0.4529 -0.1711 -0.2558
   12CHTO  H167 4761   4.391   8.782   1.067 -1.2440 -0.4367 -0.9145
   12CHTO  C102 4762   4.351   9.035   1.113 -1.0220  0.3816 -0.5925
   12CHTO  H189 4763   4.309   8.959   1.181  0.0076  0.7716  0.4881
   12CHTO   N18 4764   4.255   9.147   1.127 -0.5088 -0.1874 -0.5319
   12CHTO  H176 4765   4.299   9.225   1.187  1.9520 -1.0999 -1.1053
   12CHTO  H177 4766   4.157   9.118   1.163  0.2648 -3.2555 -0.7706
   12CHTO  C105 4767   4.499   9.070   1.149 -0.1081 -0.1589 -0.3081
   12CHTO  H192 4768   4.505   9.157   1.214 -1.3063  1.0691 -1.7970
   12CHTO   O65 4769   4.576   9.103   1.027 -0.2055  0.2315 -0.2490
   12CHTO  C100 4770   4.516   9.146   0.906 -0.3367 -0.1211  0.1379
   12CHTO  H187 4771   4.467   9.242   0.932 -0.6969 -0.4970  0.8645
   12CHTO  C107 4772   4.630   9.163   0.795 -0.2181  0.2890 -0.0242
   12CHTO   O70 4773   4.718   9.275   0.820  0.4123  0.1749 -0.7505
   12CHTO  H170 4774   4.664   9.350   0.805 -1.3041 -0.4894  1.7415
   12CHTO   O57 4775   4.558   8.944   1.219 -0.1815 -0.2560 -0.3734
   12CHTO   C85 4776   4.534   8.914   1.356 -0.7321  0.8052  0.1608
   12CHTO  H157 4777   4.425   8.934   1.368 -0.7046  1.5908 -0.7784
   12CHTO   C83 4778   4.605   9.016   1.449 -0.0033 -0.4810 -0.8673
   12CHTO  H155 4779   4.555   9.112   1.437  0.6987 -0.3278 -2.6840
   12CHTO   O56 4780   4.737   9.045   1.405  0.1595  0.2271 -0.3377
   12CHTO  H135 4781   4.755   9.137   1.414  0.8875 -0.1153  2.4123
   12CHTO   C81 4782   4.596   8.983   1.597 -0.2089  0.1553 -0.8884
   12CHTO  H153 4783   4.491   8.987   1.625 -0.4610 -3.1590 -1.2414
   12CHTO   N14 4784   4.638   9.088   1.686  0.4238  0.0494 -0.3472
   12CHTO  H141 4785   4.636   9.054   1.787 -1.2440  1.1473  0.0163
   12CHTO  H142 4786   4.737   9.122   1.662  0.3206  2.4732  2.4224
   12CHTO   C79 4787   4.649   8.837   1.621  0.4389 -0.5049 -0.4393
   12CHTO  H151 4788   4.628   8.816   1.726 -0.4280  2.3668 -0.0052
   12CHTO   O52 4789   4.571   8.738   1.536  0.3059  0.5589  0.6082
   12CHTO   C86 4790   4.568   8.764   1.389  0.3910  0.5253 -0.0842
   12CHTO  H158 4791   4.672   8.735   1.362  0.2765  2.4794 -2.8299
   12CHTO   C90 4792   4.465   8.659   1.327  0.0238 -0.1281  0.0261
   12CHTO   O60 4793   4.523   8.530   1.349 -0.2085 -0.5131  0.6986
   12CHTO  H138 4794   4.477   8.482   1.282 -1.1088  0.4856  0.5841
   12CHTO   O50 4795   4.785   8.812   1.578 -0.0110 -0.2095  0.9092
   12CHTO   C73 4796   4.859   8.691   1.567  0.4986  0.1534 -0.2923
   12CHTO  H145 4797   4.784   8.613   1.544 -1.5994  1.3557  2.1730
   12CHTO   C74 4798   4.910   8.650   1.705  0.1155 -0.1500 -0.7863
   12CHTO  H146 4799   4.824   8.659   1.774  0.5726 -0.7835 -0.1262
   12CHTO   O54 4800   4.938   8.508   1.700 -0.5043  0.0275 -0.2922
   12CHTO  H133 4801   4.890   8.453   1.641  1.1866 -1.1776 -0.6135
   12CHTO   C75 4802   5.025   8.739   1.756 -0.1787  0.0731  0.6517
   12CHTO  H147 4803   4.990   8.843   1.748  1.3991  0.6505  1.0382
   12CHTO   N13 4804   5.074   8.723   1.896  0.3442  0.1841 -0.1630
   12CHTO  H139 4805   5.172   8.678   1.886 -0.2922 -0.3019 -5.1400
   12CHTO  H140 4806   5.006   8.661   1.951 -1.0789 -0.5832 -2.7303
   12CHTO   C76 4807   5.135   8.729   1.644  0.8875 -0.3657  0.0428
   12CHTO  H148 4808   5.168   8.625   1.638  0.5491 -0.6641  2.9270
   12CHTO   O49 4809   5.086   8.771   1.517 -0.2365  0.0331 -0.5128
   12CHTO   C77 4810   4.980   8.688   1.472  0.6812 -0.4815  0.5139
   12CHTO  H149 4811   5.016   8.585   1.462 -0.7199 -0.9116 -0.1946
   12CHTO   C88 4812   4.945   8.711   1.321 -0.0867 -0.3891  0.6035
   12CHTO   O58 4813   4.934   8.859   1.273  0.1657  0.4534  0.0000
   12CHTO  H136 4814   5.017   8.902   1.277 -0.6864  2.1349  0.4126
   12CHTO   O51 4815   5.265   8.831   1.670  0.6389  0.3011  0.0696
   12CHTO   C78 4816   5.404   8.749   1.639 -0.1472 -0.9462 -0.5920
   12CHTO  H150 4817   5.377   8.647   1.604 -2.8861 -1.2295  2.1310
   12CHTO   C80 4818   5.495   8.730   1.762  0.4150  0.4278 -0.1863
   12CHTO  H152 4819   5.537   8.828   1.791 -0.9135  1.2586 -1.0145
   12CHTO   O55 4820   5.406   8.685   1.869  0.1385  0.3426 -0.6501
   12CHTO  H134 4821   5.339   8.744   1.897  0.5707  0.0744  1.0120
   12CHTO   C84 4822   5.612   8.626   1.732  0.3710  0.0269 -0.6931
   12CHTO  H156 4823   5.564   8.530   1.713 -1.2350  0.2997  1.7631
   12CHTO   N15 4824   5.694   8.604   1.859 -0.0703  0.2888  0.2324
   12CHTO  H143 4825   5.683   8.498   1.871  1.0593  0.2404  0.9026
   12CHTO  H144 4826   5.651   8.651   1.945  1.9489 -0.6713  1.7945
   12CHTO   C87 4827   5.692   8.664   1.604  0.1552  0.0257 -0.7329
   12CHTO  H159 4828   5.757   8.749   1.623 -0.6072  0.7707 -1.4395
   12CHTO   O53 4829   5.584   8.710   1.486  0.2998  0.5119 -0.7901
   12CHTO   C82 4830   5.491   8.812   1.525 -0.3991 -0.2347 -0.3756
   12CHTO  H154 4831   5.551   8.897   1.560  0.4293 -1.0671  0.2298
   12CHTO   C89 4832   5.401   8.851   1.402  0.4645 -0.6210 -0.3980
   12CHTO   O59 4833   5.331   8.974   1.416 -0.2320  0.6300  0.1532
   12CHTO  H137 4834   5.239   8.959   1.428 -0.2216 -0.4549 -0.9695
   12CHTO   O45 4835   5.784   8.519   1.548 -0.6073  0.3641 -0.5183
   12CHTO   C67 4836   5.886   8.525   1.449  0.3752 -0.0555  0.1453
   12CHTO  H124 4837   5.932   8.426   1.445  0.0235 -0.3730  2.7513
   12CHTO   C65 4838   5.829   8.560   1.305  0.5896 -0.8251  0.2059
   12CHTO  H122 4839   5.722   8.540   1.311  0.5299 -1.3744 -2.3494
   12CHTO   O44 4840   5.891   8.471   1.212  0.6186 -0.0303 -0.2175
   12CHTO  H102 4841   5.869   8.502   1.127 -0.3305  2.3091  0.8291
   12CHTO   C63 4842   5.840   8.713   1.282  0.4502  0.3648  0.4096
   12CHTO  H120 4843   5.795   8.766   1.366  2.0962 -1.9580  2.8440
   12CHTO   N11 4844   5.763   8.761   1.161  0.3427 -0.2120  0.0959
   12CHTO  H108 4845   5.704   8.685   1.114  0.7115  1.6608 -3.5722
   12CHTO  H109 4846   5.839   8.807   1.102  1.4270 -0.8323  0.9858
   12CHTO   C61 4847   5.997   8.745   1.273 -0.5577  0.0411 -0.3482
   12CHTO  H118 4848   6.011   8.854   1.272 -1.2060  0.1297 -0.1026
   12CHTO   O40 4849   6.082   8.682   1.388 -0.3500  0.0556  0.7224
   12CHTO   C68 4850   5.999   8.624   1.492 -0.2100 -0.0073  0.1671
   12CHTO  H125 4851   5.949   8.709   1.544  1.9114  2.1082 -1.1505
   12CHTO   C72 4852   6.088   8.555   1.590  0.4636 -0.0970 -0.2944
   12CHTO   O48 4853   6.145   8.639   1.686 -0.7833  0.2897  0.0300
   12CHTO  H105 4854   6.224   8.677   1.653  0.0522  1.3728  3.1268
   12CHTO   O38 4855   6.054   8.694   1.152  0.2322  0.3783 -0.2359
   12CHTO   C55 4856   6.177   8.750   1.107 -0.2897 -0.4403 -0.1539
   12CHTO  H112 4857   6.236   8.770   1.197 -1.2640 -1.6253  0.7787
   12CHTO   C56 4858   6.161   8.875   1.009 -0.1244 -0.1920 -1.3347
   12CHTO  H113 4859   6.086   8.843   0.935 -0.3679  0.7890 -1.5121
   12CHTO   O42 4860   6.103   8.982   1.081  0.3476 -0.2411 -0.1975
   12CHTO  H100 4861   6.091   9.055   1.022 -1.0076 -0.2385  0.0562
   12CHTO   C57 4862   6.298   8.900   0.942 -0.5567 -0.4143  0.1874
   12CHTO  H114 4863   6.365   8.947   1.015 -3.6579  1.8333  1.6993
   12CHTO   N10 4864   6.283   9.009   0.840  0.3269 -0.5664  0.2940
   12CHTO  H106 4865   6.338   9.001   0.748  0.7560  1.4242  0.3662
   12CHTO  H107 4866   6.179   9.025   0.814  0.1975 -1.8545 -0.0129
   12CHTO   C58 4867   6.373   8.776   0.886 -0.3564  0.3865  0.2443
   12CHTO  H115 4868   6.315   8.737   0.800 -0.4937  0.7487  0.1697
   12CHTO   O37 4869   6.383   8.675   0.989  0.7308  0.3621 -0.2064
   12CHTO   C59 4870   6.257   8.630   1.043 -0.0012  0.4536  0.9319
   12CHTO  H116 4871   6.204   8.589   0.957  2.1986 -0.2183 -0.1406
   12CHTO   C70 4872   6.291   8.517   1.143 -0.0141  0.0067 -0.5075
   12CHTO   O46 4873   6.191   8.452   1.224  0.8865  0.0265 -0.4452
   12CHTO  H103 4874   6.146   8.513   1.279  2.0823 -0.8561  1.5784
   12CHTO   O39 4875   6.536   8.806   0.857  0.0473 -0.5787 -0.0782
   12CHTO   C60 4876   6.575   8.800   0.722 -0.6538  0.0585 -0.2254
   12CHTO  H117 4877   6.492   8.813   0.652  0.6553  0.0731 -1.8045
   12CHTO   C62 4878   6.682   8.905   0.684 -0.1340 -0.1623 -0.7518
   12CHTO  H119 4879   6.630   9.001   0.701  2.3344  0.7604  2.1493
   12CHTO   O43 4880   6.797   8.894   0.771  0.3183  0.8392  0.6406
   12CHTO  H101 4881   6.782   8.909   0.862  1.3949 -0.1207  0.9830
   12CHTO   C66 4882   6.720   8.888   0.528 -0.7447  0.3154 -0.5417
   12CHTO  H123 4883   6.628   8.885   0.470 -0.3296 -0.9350 -1.1405
   12CHTO   N12 4884   6.811   8.996   0.478  0.1673 -0.6113  0.4953
   12CHTO  H110 4885   6.829   9.069   0.556  0.8973  0.7063 -0.8685
   12CHTO  H111 4886   6.762   9.045   0.394  1.0161 -0.0247  0.3362
   12CHTO   C69 4887   6.799   8.754   0.515  0.1799  0.1805 -0.6318
   12CHTO  H126 4888   6.889   8.755   0.579 -0.8522 -0.4317  0.8685
   12CHTO   O41 4889   6.686   8.644   0.554 -0.1079 -0.1530 -0.5274
   12CHTO   C64 4890   6.643   8.662   0.692 -0.2771  0.1097  0.0656
   12CHTO  H121 4891   6.731   8.659   0.760 -0.0924  2.5065  0.0021
   12CHTO   C71 4892   6.562   8.538   0.738  0.0761 -0.1967 -0.6555
   12CHTO   O47 4893   6.639   8.420   0.714 -0.0185 -0.3028 -0.3506
   12CHTO  H104 4894   6.683   8.394   0.793  0.4903  1.0636 -0.1617
   12CHTO   O34 4895   6.834   8.730   0.374  0.3313 -0.1317 -0.6697
   12CHTO   C49 4896   6.966   8.678   0.299 -0.7647 -0.1669  0.0406
   12CHTO   H91 4897   7.047   8.736   0.343 -1.0790  0.4382 -0.1701
   12CHTO   C47 4898   6.939   8.695   0.150 -0.7454  0.0079  0.0664
   12CHTO   H89 4899   7.040   8.677   0.106 -1.5331 -2.9833 -0.6553
   12CHTO   O33 4900   6.903   8.831   0.120 -0.2924 -0.1728 -0.3257
   12CHTO   H70 4901   6.931   8.857   0.034 -0.9692 -0.9037 -0.7653
   12CHTO   C45 4902   6.828   8.599   0.088  0.0351  0.1697  0.0093
   12CHTO   H87 4903   6.736   8.660   0.084  0.2791  0.4875 -0.8341
   12CHTO    N8 4904   6.868   8.575  -0.053 -0.2019 -0.1964 -0.3770
   12CHTO   H75 4905   6.908   8.477  -0.077 -0.3417 -0.4114  0.2591
   12CHTO   H76 4906   6.941   8.650  -0.080  0.9157 -1.4965 -1.0506
   12CHTO   C43 4907   6.808   8.469   0.183 -0.1214 -0.6092  0.1551
   12CHTO   H85 4908   6.752   8.512   0.266 -0.7604  1.4966 -1.3236
   12CHTO   O29 4909   6.937   8.432   0.221 -0.1056 -0.3462 -0.1005
   12CHTO   C50 4910   6.988   8.521   0.322 -0.4736  0.0328  0.0996
   12CHTO   H92 4911   6.933   8.500   0.415  0.9353  2.7780  1.5954
   12CHTO   C54 4912   7.139   8.481   0.349  0.1814 -0.3098 -1.1644
   12CHTO   O36 4913   7.163   8.338   0.366 -0.1056  0.1809  0.5095
   12CHTO   H72 4914   7.142   8.294   0.286 -0.9060 -0.1374  0.8911
   12CHTO   O27 4915   6.723   8.359   0.141 -0.2643  0.2820 -0.3708
   12CHTO   C37 4916   6.642   8.266   0.223 -0.2881  0.0967  0.3043
   12CHTO   H79 4917   6.617   8.175   0.165 -0.6679  0.3983 -0.0072
   12CHTO   C38 4918   6.721   8.217   0.353 -0.5092  0.6816 -0.2416
   12CHTO   H80 4919   6.760   8.300   0.414 -0.4388  0.0061  0.6408
   12CHTO   O31 4920   6.835   8.154   0.297 -0.0599 -0.2658  0.5056
   12CHTO   H68 4921   6.901   8.160   0.363  0.1200 -3.6728  0.7352
   12CHTO   C39 4922   6.633   8.121   0.436 -0.3959  0.2031  0.1356
   12CHTO   H81 4923   6.606   8.039   0.369  1.0029  1.2219 -1.7026
   12CHTO    N7 4924   6.700   8.050   0.552 -0.0265  0.0559 -0.2454
   12CHTO   H73 4925   6.705   7.942   0.546  2.0583 -0.0843  2.7292
   12CHTO   H74 4926   6.665   8.078   0.650  1.2488 -1.6021  0.7078
   12CHTO   C40 4927   6.502   8.197   0.471  0.2477 -0.5056 -0.1290
   12CHTO   H82 4928   6.505   8.278   0.544 -1.3069  0.6003 -1.2661
   12CHTO   O26 4929   6.437   8.240   0.355  0.4272 -0.0407  0.2868
   12CHTO   C41 4930   6.510   8.327   0.263 -0.3770 -0.7764  0.3454
   12CHTO   H83 4931   6.513   8.428   0.307 -3.5498 -1.4524  2.3127
   12CHTO   C52 4932   6.409   8.348   0.142 -0.5662 -0.4296  0.3390
   12CHTO   O35 4933   6.482   8.450   0.027 -0.3221 -0.6116  0.4776
   12CHTO   H71 4934   6.491   8.413  -0.058  0.7045 -0.0909  0.3449
   12CHTO   O28 4935   6.395   8.119   0.522  0.0065  0.1852  0.2817
   12CHTO   C42 4936   6.300   8.170   0.628  0.0298 -0.3164  0.2993
   12CHTO   H84 4937   6.331   8.275   0.634 -0.5478  0.0738 -2.7726
   12CHTO   C44 4938   6.320   8.106   0.767 -0.4234 -0.0915  0.3453
   12CHTO   H86 4939   6.315   7.998   0.760  0.2028  0.0236 -2.5272
   12CHTO   O32 4940   6.457   8.144   0.807  0.3379 -0.3344  0.3659
   12CHTO   H69 4941   6.451   8.237   0.820 -0.1109 -0.2109 -0.6704
   12CHTO   C48 4942   6.223   8.162   0.876  0.4970 -0.2754 -1.0467
   12CHTO   H90 4943   6.258   8.258   0.915 -0.9486  0.9300 -2.6307
   12CHTO    N9 4944   6.214   8.074   0.999 -0.0181 -0.4148  0.4618
   12CHTO   H77 4945   6.220   8.125   1.094 -1.8722 -1.0529  0.9225
   12CHTO   H78 4946   6.134   8.002   0.994 -2.0679  1.7039  1.4869
   12CHTO   C51 4947   6.078   8.182   0.822  0.3244 -0.0760 -0.3777
   12CHTO   H93 4948   6.027   8.085   0.817  0.2968 -0.1784  1.4505
   12CHTO   O30 4949   6.075   8.246   0.692  0.4787 -0.5026  0.3963
   12CHTO   C46 4950   6.152   8.168   0.589 -0.4907 -1.0704  0.0203
   12CHTO   H88 4951   6.118   8.065   0.583 -1.6787 -0.6707 -0.3258
   12CHTO   C53 4952   6.117   8.252   0.460  0.1903 -0.4592  0.3953
   12CHTO   O72 4953   5.984   8.225   0.418 -0.3018 -0.7911  0.1639
   12CHTO  H199 4954   5.980   8.231   0.325  0.6500  1.8380  0.2657
   12CHTO   O22 4955   5.998   8.266   0.909 -0.5886 -0.1746  0.2303
   12CHTO   C31 4956   5.854   8.296   0.876  0.1441 -0.5725 -0.1087
   12CHTO   H59 4957   5.831   8.251   0.777 -0.8350 -0.7144  0.1769
   12CHTO   C29 4958   5.759   8.232   0.981 -0.0697  0.4503  0.2726
   12CHTO   H57 4959   5.784   8.272   1.081 -2.4704  0.2528  0.9970
   12CHTO   O21 4960   5.777   8.085   0.983 -0.2528  0.1537 -0.5528
   12CHTO   H37 4961   5.779   8.057   1.072  0.5418  1.1856 -0.2374
   12CHTO   C27 4962   5.608   8.268   0.953 -0.5304 -0.7533  0.1550
   12CHTO   H55 4963   5.582   8.218   0.858  1.4764 -0.6671 -0.4597
   12CHTO    N5 4964   5.521   8.230   1.062  0.1816  0.0623 -0.2339
   12CHTO   H43 4965   5.519   8.122   1.064 -1.1657  0.0627 -0.5498
   12CHTO   H44 4966   5.547   8.281   1.153  3.2519  0.9569 -1.5459
   12CHTO   C25 4967   5.588   8.421   0.922  0.1139 -0.0982  0.2705
   12CHTO   H53 4968   5.587   8.477   1.016  0.7863 -0.2604  0.3754
   12CHTO   O17 4969   5.687   8.470   0.823 -0.6765 -0.2009 -0.1504
   12CHTO   C32 4970   5.826   8.455   0.859  0.4407 -0.4173  0.5003
   12CHTO   H60 4971   5.829   8.504   0.956  0.7434  0.8663 -0.1411
   12CHTO   C36 4972   5.915   8.521   0.750 -0.0158  0.3269  0.0651
   12CHTO   O25 4973   6.042   8.557   0.801 -0.1301 -0.5155  0.3890
   12CHTO   H40 4974   6.098   8.557   0.725 -2.4514 -1.7595 -1.4036
   12CHTO   O15 4975   5.445   8.448   0.868  0.1406  0.4177  0.0314
   12CHTO   C19 4976   5.375   8.569   0.833  0.2987  0.1425  0.9575
   12CHTO   H47 4977   5.431   8.648   0.886  2.0659  0.2919 -1.0580
   12CHTO   C20 4978   5.375   8.585   0.676  1.0732 -0.2722  0.1178
   12CHTO   H48 4979   5.321   8.504   0.626 -0.2236 -1.0831  2.7319
   12CHTO   O19 4980   5.512   8.579   0.631 -0.1833 -0.0807 -0.7460
   12CHTO   H35 4981   5.564   8.529   0.691 -0.2310  0.2787 -0.4063
   12CHTO   C21 4982   5.302   8.728   0.641 -0.5836  0.0721  0.9181
   12CHTO   H49 4983   5.353   8.808   0.695 -3.9518  1.3902  2.2567
   12CHTO    N4 4984   5.304   8.768   0.503  0.0989 -0.1924  0.1294
   12CHTO   H41 4985   5.407   8.772   0.472  1.2725 -0.9724  3.6886
   12CHTO   H42 4986   5.250   8.699   0.440  1.2640 -1.7606  0.8240
   12CHTO   C22 4987   5.160   8.731   0.705 -0.6200  1.0948 -0.0859
   12CHTO   H50 4988   5.094   8.656   0.660 -0.5896 -0.0816  1.8161
   12CHTO   O14 4989   5.173   8.707   0.846 -0.0334 -0.8658  0.4169
   12CHTO   C23 4990   5.227   8.579   0.886  0.4614 -0.0090  0.8189
   12CHTO   H51 4991   5.164   8.497   0.848  2.0452 -0.0353 -1.8606
   12CHTO   C34 4992   5.216   8.575   1.042  0.2086 -0.4795  0.3787
   12CHTO   O23 4993   5.213   8.437   1.069 -0.2713 -0.0698 -0.4118
   12CHTO   H38 4994   5.186   8.429   1.159  3.2360  2.7142  1.0027
   12CHTO   O16 4995   5.098   8.868   0.705 -0.8414  0.3971 -0.1103
   12CHTO   C24 4996   4.943   8.893   0.731 -0.2599 -0.3559  0.0702
   12CHTO   H52 4997   4.915   8.998   0.738 -1.5247 -0.7972  2.1851
   12CHTO   C26 4998   4.901   8.822   0.860  0.6487 -0.1302  0.3629
   12CHTO   H54 4999   4.933   8.716   0.857  1.8378  0.2346 -0.0051
   12CHTO   O20 5000   4.976   8.897   0.965 -0.2496 -0.1073  0.0023
   12CHTO   H36 5001   4.953   8.988   0.959 -1.0253 -0.3269 -0.4954
   12CHTO   C30 5002   4.748   8.821   0.887 -0.4320  0.4222 -0.3853
   12CHTO   H58 5003   4.707   8.919   0.915 -2.1139 -0.5161  0.5514
   12CHTO    N6 5004   4.717   8.745   1.012  0.2527 -0.3925  0.0517
   12CHTO   H45 5005   4.611   8.727   1.011 -0.3722  2.9650 -1.1397
   12CHTO   H46 5006   4.739   8.805   1.099  1.4732  0.9384 -1.1381
   12CHTO   C33 5007   4.673   8.765   0.761 -0.2698 -0.7134  0.1657
   12CHTO   H61 5008   4.700   8.662   0.734 -2.3975 -2.1347  3.1854
   12CHTO   O18 5009   4.722   8.856   0.654  0.2417  0.1586  0.0326
   12CHTO   C28 5010   4.861   8.830   0.621  0.1669  0.5226  0.0389
   12CHTO   H56 5011   4.884   8.724   0.613  2.2635  1.0141 -0.6928
   12CHTO   C35 5012   4.896   8.885   0.479  0.7587  0.4576 -0.2572
   12CHTO   O24 5013   4.845   9.014   0.461  0.6805  0.4667 -0.0617
   12CHTO   H39 5014   4.782   9.009   0.392  1.6412 -2.0490 -0.8127
   12CHTO    O9 5015   4.531   8.758   0.762  0.2885  0.3320 -0.0008
   12CHTO   C13 5016   4.465   8.701   0.630 -0.3831 -0.6246  1.2880
   12CHTO   H26 5017   4.526   8.741   0.546  0.1137 -0.9780  1.4823
   12CHTO   C11 5018   4.319   8.745   0.622 -0.1964 -0.5164  0.3512
   12CHTO   H24 5019   4.319   8.855   0.609 -0.5766 -0.6292 -0.6306
   12CHTO    O8 5020   4.247   8.708   0.739 -0.1290  0.3176  0.2941
   12CHTO    H3 5021   4.163   8.673   0.716  0.1676  0.5018 -1.1696
   12CHTO    C9 5022   4.264   8.684   0.487 -0.1462  0.5187 -0.3782
   12CHTO   H22 5023   4.340   8.702   0.410  0.8749 -1.8928  0.0280
   12CHTO    N2 5024   4.132   8.746   0.447  0.0027  0.0346 -0.5712
   12CHTO   H10 5025   4.052   8.678   0.472 -1.9096  1.7601 -1.8405
   12CHTO   H11 5026   4.136   8.764   0.340 -3.3049  2.3044 -0.3625
   12CHTO    C7 5027   4.262   8.521   0.495  0.4471 -0.1672 -0.2907
   12CHTO   H20 5028   4.212   8.483   0.404  0.1994  0.1689 -0.2958
   12CHTO    O4 5029   4.403   8.485   0.510 -0.3423  0.3413 -0.1227
   12CHTO   C14 5030   4.486   8.544   0.617  0.6174  0.2738 -0.5220
   12CHTO   H27 5031   4.594   8.534   0.597  0.9672  1.8755  0.4260
   12CHTO   C18 5032   4.454   8.477   0.755 -0.4179  0.2177  0.5747
   12CHTO   O13 5033   4.500   8.339   0.764  0.1255  0.5544  0.0154
   12CHTO    H7 5034   4.434   8.284   0.727  1.4028 -0.7642 -0.3330
   12CHTO    O2 5035   4.171   8.461   0.614 -0.6942 -0.6043 -0.1646
   12CHTO    C1 5036   4.074   8.364   0.578 -0.3363 -0.1241  0.3016
   12CHTO   H14 5037   4.119   8.316   0.489  0.1214  1.7548 -0.5030
   12CHTO    C2 5038   3.933   8.413   0.544  0.9729 -0.0835 -0.0560
   12CHTO   H15 5039   3.899   8.468   0.633 -0.7956 -0.1189 -0.6952
   12CHTO    O6 5040   3.948   8.499   0.435 -0.4698  0.1418 -0.3045
   12CHTO    H1 5041   4.007   8.568   0.458  0.7728 -1.5027  1.5660
   12CHTO    C3 5042   3.830   8.288   0.511 -0.1155 -0.6521 -0.0041
   12CHTO   H16 5043   3.855   8.247   0.412  0.8738 -0.4666  0.1664
   12CHTO    N1 5044   3.688   8.345   0.496  0.5623  0.0248 -0.2694
   12CHTO    H8 5045   3.683   8.399   0.403  2.9189 -0.8106 -0.9111
   12CHTO    H9 5046   3.612   8.272   0.519 -0.0656  0.6662 -0.3089
   12CHTO    C4 5047   3.848   8.182   0.628 -0.4658  0.4401 -0.0406
   12CHTO   H17 5048   3.810   8.223   0.722  0.0670  1.2119 -0.1589
   12CHTO    O1 5049   3.982   8.145   0.643 -0.3428  0.4918  0.0605
   12CHTO    C5 5050   4.060   8.254   0.688 -0.7745 -0.4768 -0.0559
   12CHTO   H18 5051   4.016   8.295   0.779  0.0666  1.0353 -0.3128
   12CHTO   C16 5052   4.198   8.190   0.722  0.6698 -0.7403 -0.3935
   12CHTO   O11 5053   4.189   8.108   0.838 -0.2307  0.6973  0.4078
   12CHTO    H5 5054   4.274   8.069   0.850  0.2926  1.7150  0.0238
   12CHTO    O3 5055   3.779   8.061   0.598  0.3309 -0.0614 -0.0235
   12CHTO    C6 5056   3.736   7.971   0.705 -0.5701  0.3781  0.0003
   12CHTO   H19 5057   3.769   8.007   0.803  2.1346 -1.1558 -0.3126
   12CHTO    C8 5058   3.577   7.960   0.695 -0.2573  0.1095 -0.4387
   12CHTO   H21 5059   3.544   7.930   0.596  0.0119 -0.4601 -0.3567
   12CHTO    O7 5060   3.528   8.095   0.727 -0.5748  0.2670 -0.2691
   12CHTO    H2 5061   3.444   8.106   0.687  0.8290 -1.2966 -3.8211
   12CHTO   C12 5062   3.516   7.849   0.794  0.0196  0.1138 -0.6721
   12CHTO   H25 5063   3.533   7.891   0.895  0.3023  0.6456 -0.9394
   12CHTO    N3 5064   3.368   7.840   0.775  0.0621  0.1391 -0.4935
   12CHTO   H12 5065   3.326   7.773   0.848 -0.7806  0.7401 -0.4117
   12CHTO   H13 5066   3.338   7.801   0.679 -0.7563 -0.9150  0.1802
   12CHTO   C15 5067   3.590   7.714   0.785  0.2257  0.2977  0.0232
   12CHTO   H28 5068   3.561   7.656   0.697  1.6977 -2.9294  1.5798
   12CHTO   O10 5069   3.588   7.620   0.918  0.1961 -0.3406  0.2309
   12CHTO    H4 5070   3.507   7.572   0.911 -1.6144  2.7415 -1.2687
   12CHTO    O5 5071   3.734   7.744   0.789 -0.0856 -0.0145 -0.1316
   12CHTO   C10 5072   3.789   7.831   0.691 -0.1663  0.2300  0.1133
   12CHTO   H23 5073   3.751   7.786   0.600 -1.2228  0.6936  0.3211
   12CHTO   C17 5074   3.942   7.818   0.671  0.3244 -0.1506  0.3048
   12CHTO   O12 5075   4.025   7.824   0.788  0.3985  0.7881 -0.0274
   12CHTO    H6 5076   4.114   7.818   0.759  0.9462  0.5350  1.6636
   13CHTO  H203 5077   7.292   3.665  -0.532  0.2076  1.6591 -0.9108
   13CHTO   O82 5078   7.203   3.666  -0.501  0.5027 -0.5172  0.1560
   13CHTO  C123 5079   7.169   3.800  -0.469 -0.1114 -0.3983 -1.1721
   13CHTO  H227 5080   7.259   3.858  -0.493  0.3415 -0.6481 -0.1283
   13CHTO   O77 5081   7.054   3.825  -0.552  0.3408  0.0416 -0.0663
   13CHTO  C118 5082   7.007   3.955  -0.551 -0.6221 -0.2884  0.5145
   13CHTO  H222 5083   7.094   4.022  -0.558 -0.6687 -0.2434  0.3642
   13CHTO  C125 5084   6.900   3.988  -0.665 -0.4275  0.0163  0.3519
   13CHTO   O84 5085   6.954   3.980  -0.799  0.0664  0.4884  0.0964
   13CHTO  H205 5086   6.933   3.893  -0.825 -1.0425  0.5889  0.5709
   13CHTO  C114 5087   6.945   3.971  -0.409  0.0388 -0.0710  0.4900
   13CHTO  H218 5088   6.879   3.886  -0.393  1.3691 -0.9687  1.2889
   13CHTO  C116 5089   7.061   3.957  -0.299 -0.0391  0.2663 -0.3589
   13CHTO  H220 5090   7.136   4.038  -0.311 -1.0844  0.9424 -2.4748
   13CHTO   O79 5091   6.992   3.964  -0.178  0.3523  0.4424 -0.2593
   13CHTO  H201 5092   6.998   4.054  -0.150 -1.6181  0.6261 -0.3064
   13CHTO  C120 5093   7.128   3.815  -0.314 -0.3892 -0.4185  0.0146
   13CHTO  H224 5094   7.054   3.741  -0.277 -1.6459  1.4944  1.3957
   13CHTO   N21 5095   7.249   3.790  -0.222  0.0868  0.2475  0.4724
   13CHTO  H211 5096   7.246   3.684  -0.199 -1.0659 -0.2698 -1.9293
   13CHTO  H212 5097   7.338   3.812  -0.278 -0.1438 -0.7972 -0.3261
   13CHTO   O75 5098   6.879   4.091  -0.414 -0.0746  0.7141 -0.4000
   13CHTO  C112 5099   6.748   4.122  -0.307  0.0660 -0.2367 -0.3591
   13CHTO  H216 5100   6.770   4.058  -0.220  1.1237  0.3101 -0.2182
   13CHTO   O73 5101   6.630   4.079  -0.374 -0.4287  0.6420  0.4594
   13CHTO  C113 5102   6.517   4.080  -0.288  0.3339  0.1300  0.1331
   13CHTO  H217 5103   6.527   4.014  -0.200  1.6496  1.0849  0.7156
   13CHTO  C124 5104   6.398   4.028  -0.374  0.1930  0.5268  0.1170
   13CHTO   O83 5105   6.281   3.983  -0.304  0.5413  0.1903  0.0774
   13CHTO  H204 5106   6.232   3.922  -0.357  0.4313  1.5167 -1.3879
   13CHTO  C109 5107   6.484   4.226  -0.231  0.0591 -0.0995 -0.7849
   13CHTO  H213 5108   6.448   4.286  -0.316  2.0010  0.7099 -1.0600
   13CHTO  C110 5109   6.614   4.298  -0.172 -0.0579 -0.3529 -0.1370
   13CHTO  H214 5110   6.628   4.257  -0.072 -3.1468  1.7346  1.2469
   13CHTO   O78 5111   6.575   4.435  -0.156  0.3729 -0.1487 -0.5642
   13CHTO  H200 5112   6.646   4.492  -0.134 -1.6444  2.5310 -0.7039
   13CHTO  C111 5113   6.738   4.275  -0.267  0.0698  0.2800  0.5264
   13CHTO  H215 5114   6.726   4.326  -0.364 -0.2386 -1.4580 -0.3791
   13CHTO   N19 5115   6.863   4.320  -0.209  0.5593  0.1841  0.1688
   13CHTO  H207 5116   6.857   4.419  -0.167 -1.9598 -0.7545  2.1214
   13CHTO  H208 5117   6.949   4.307  -0.273 -1.6944 -2.7582 -2.3991
   13CHTO   O74 5118   6.378   4.229  -0.134  0.3301  0.1396  0.2165
   13CHTO  C115 5119   6.297   4.369  -0.127  0.0102 -0.4843  0.5260
   13CHTO  H219 5120   6.337   4.440  -0.055 -0.4976  0.6170 -0.2596
   13CHTO   O76 5121   6.308   4.456  -0.272 -0.3698 -0.0274 -0.0827
   13CHTO  C122 5122   6.226   4.575  -0.280  0.3852 -0.5493  0.2809
   13CHTO  H226 5123   6.229   4.612  -0.383  1.5221  1.0369  0.8505
   13CHTO  C126 5124   6.299   4.694  -0.197 -0.1655  0.5292 -0.3944
   13CHTO   O85 5125   6.392   4.760  -0.272 -0.0604 -0.1469 -1.5318
   13CHTO  H206 5126   6.434   4.822  -0.214 -1.8225  1.5370 -2.0116
   13CHTO  C121 5127   6.075   4.557  -0.240 -0.6541  0.8754 -0.5212
   13CHTO  H225 5128   6.031   4.656  -0.218 -1.7140  0.2489  0.2311
   13CHTO   O81 5129   6.002   4.488  -0.339  0.0560  0.3241  0.0786
   13CHTO  H202 5130   5.975   4.545  -0.408  1.4018  1.9524  0.8671
   13CHTO  C119 5131   6.063   4.476  -0.103  0.7089  0.5161 -0.5842
   13CHTO  H223 5132   6.099   4.540  -0.022  1.8901  1.0589 -1.5180
   13CHTO  C117 5133   6.148   4.338  -0.093 -0.1246 -0.8739 -0.6174
   13CHTO  H221 5134   6.113   4.264  -0.166 -2.1037  0.1082 -0.6982
   13CHTO   N20 5135   6.132   4.276   0.046  0.6472 -0.6750 -0.3541
   13CHTO  H209 5136   6.175   4.177   0.044 -0.8337 -1.3251 -3.9205
   13CHTO  H210 5137   6.027   4.279   0.070  0.7133  0.2211 -0.1382
   13CHTO   O80 5138   5.906   4.471  -0.072  0.1674  0.0502  0.5533
   13CHTO  C103 5139   5.847   4.554   0.045 -0.3910 -0.6081  0.5754
   13CHTO  H190 5140   5.903   4.556   0.138 -0.4454  1.1483  0.5989
   13CHTO  C101 5141   5.811   4.706   0.018  0.2090  0.0485 -0.0201
   13CHTO  H188 5142   5.771   4.711  -0.084  0.5734 -0.2834 -0.1822
   13CHTO   O68 5143   5.958   4.793   0.002 -0.0836 -0.5700 -0.5127
   13CHTO  H168 5144   6.029   4.734  -0.017  1.0035  0.1422  1.2823
   13CHTO   C99 5145   5.711   4.777   0.122  0.2027  0.5482  0.5408
   13CHTO  H186 5146   5.762   4.792   0.220  1.1813  0.3027  0.0824
   13CHTO   N17 5147   5.658   4.908   0.086  0.3682  0.2753 -0.3819
   13CHTO  H174 5148   5.688   4.934  -0.015  2.2079  1.0079  0.3341
   13CHTO  H175 5149   5.695   4.985   0.152 -0.6157  2.6243 -2.4938
   13CHTO   C97 5150   5.593   4.684   0.148 -0.2953 -0.1723 -0.3672
   13CHTO  H184 5151   5.520   4.689   0.066  0.2610 -0.7510 -0.9004
   13CHTO   O64 5152   5.635   4.551   0.174  0.1644  1.0078 -0.6855
   13CHTO  C104 5153   5.706   4.481   0.066  0.2450 -0.6465 -0.0840
   13CHTO  H191 5154   5.651   4.475  -0.028  0.2508  0.2667 -0.1534
   13CHTO  C108 5155   5.739   4.340   0.108  0.2264  0.6147 -0.6913
   13CHTO   O71 5156   5.635   4.261   0.151 -0.4046 -0.4287  0.7856
   13CHTO  H171 5157   5.666   4.185   0.197 -0.1576 -0.4190  0.6361
   13CHTO   O62 5158   5.528   4.721   0.278  1.0149 -0.6101  0.5021
   13CHTO   C91 5159   5.386   4.715   0.279  0.2145  0.2068  1.6418
   13CHTO  H178 5160   5.352   4.780   0.199  0.7021 -1.1458  0.3152
   13CHTO   C92 5161   5.341   4.808   0.398 -0.1513 -0.2193 -0.5208
   13CHTO  H179 5162   5.368   4.758   0.492 -1.8197 -1.7206 -0.8209
   13CHTO   O66 5163   5.406   4.939   0.385 -0.0628  0.6579 -0.3817
   13CHTO  H166 5164   5.381   4.983   0.464 -2.3337 -3.6953  1.5277
   13CHTO   C93 5165   5.184   4.815   0.391  0.1887 -0.1857 -0.2198
   13CHTO  H180 5166   5.158   4.864   0.296 -2.6708 -3.3382 -1.1658
   13CHTO   N16 5167   5.132   4.896   0.502 -0.8132  0.5056 -0.2444
   13CHTO  H172 5168   5.101   4.992   0.463 -1.6265 -0.3273 -1.6919
   13CHTO  H173 5169   5.045   4.847   0.544 -0.6898 -1.3460 -2.0770
   13CHTO   C94 5170   5.122   4.668   0.390 -0.3576 -0.3933  0.2777
   13CHTO  H181 5171   5.066   4.647   0.481 -1.9348  1.8176 -0.1465
   13CHTO   O61 5172   5.216   4.559   0.385  0.0373  0.4881 -0.7476
   13CHTO   C95 5173   5.322   4.574   0.288 -0.4127 -0.2240  0.2869
   13CHTO  H182 5174   5.403   4.507   0.315  1.2264  1.1618 -1.1252
   13CHTO  C106 5175   5.278   4.528   0.141 -0.0309 -0.6544 -0.2418
   13CHTO   O69 5176   5.247   4.393   0.127 -0.6201  0.5461  0.3330
   13CHTO  H169 5177   5.166   4.383   0.173  0.1013  0.7201  1.6843
   13CHTO   O63 5178   5.017   4.652   0.270  0.0109 -0.1028  0.1970
   13CHTO   C96 5179   4.866   4.707   0.309 -0.2809  0.2181  0.8620
   13CHTO  H183 5180   4.878   4.782   0.387  2.4015 -0.3327  1.0259
   13CHTO   C98 5181   4.778   4.590   0.370  0.4956 -0.1109 -0.3951
   13CHTO  H185 5182   4.786   4.509   0.296  0.0410  0.6178 -1.2498
   13CHTO   O67 5183   4.839   4.538   0.489  0.5930  0.6539  0.5885
   13CHTO  H167 5184   4.896   4.467   0.466  0.1457  0.2296  0.7990
   13CHTO  C102 5185   4.625   4.627   0.370  0.2292  0.0473 -0.2528
   13CHTO  H189 5186   4.623   4.710   0.442  1.4157  0.3360 -0.5326
   13CHTO   N18 5187   4.545   4.513   0.428 -0.4873 -0.2227  0.2484
   13CHTO  H176 5188   4.477   4.543   0.507  1.9616  0.9076  1.9663
   13CHTO  H177 5189   4.603   4.433   0.470 -0.5413 -0.1242  0.5117
   13CHTO  C105 5190   4.573   4.691   0.232  0.0995 -0.2426 -0.2926
   13CHTO  H192 5191   4.575   4.614   0.155 -1.8603  2.0710 -2.7505
   13CHTO   O65 5192   4.654   4.805   0.193 -0.0657 -0.1650  0.3928
   13CHTO  C100 5193   4.796   4.769   0.179  0.4923 -0.2839 -0.3471
   13CHTO  H187 5194   4.806   4.686   0.107  1.7100  1.2401 -2.0135
   13CHTO  C107 5195   4.871   4.886   0.124  0.8455  0.3148 -0.0673
   13CHTO   O70 5196   4.818   4.939   0.005  0.3306 -0.6455 -0.1910
   13CHTO  H170 5197   4.819   4.875  -0.063  1.0566  1.8325 -2.6113
   13CHTO   O57 5198   4.424   4.739   0.256 -0.3939 -0.0237  0.2655
   13CHTO   C85 5199   4.365   4.849   0.192 -0.6713 -0.4152 -0.1053
   13CHTO  H157 5200   4.439   4.932   0.190 -2.2234  1.0247  0.8991
   13CHTO   C83 5201   4.255   4.911   0.294 -0.2665 -0.3443 -0.0657
   13CHTO  H155 5202   4.306   4.966   0.374 -1.4295  0.0851  0.3883
   13CHTO   O56 5203   4.176   4.812   0.364 -0.3307  0.2954 -0.0835
   13CHTO  H135 5204   4.091   4.818   0.326 -0.9499 -2.4296  0.8066
   13CHTO   C81 5205   4.186   5.020   0.212 -0.2130 -0.0602 -0.2942
   13CHTO  H153 5206   4.265   5.082   0.173 -1.0971  1.2241 -0.0721
   13CHTO   N14 5207   4.104   5.119   0.289 -0.1263  0.5496 -0.0827
   13CHTO  H141 5208   4.139   5.125   0.390  0.6696  1.2070 -0.3958
   13CHTO  H142 5209   4.107   5.215   0.242  1.8480  0.7639  0.4541
   13CHTO   C79 5210   4.096   4.956   0.092 -0.0955 -0.5455 -0.0576
   13CHTO  H151 5211   4.095   5.032   0.014 -0.8537 -0.9271 -0.4139
   13CHTO   O52 5212   4.160   4.840   0.031 -0.0994  0.3956 -0.4076
   13CHTO   C86 5213   4.303   4.821   0.044 -0.4736 -0.4591 -0.4819
   13CHTO  H158 5214   4.313   4.717   0.007 -1.3557 -0.8625  0.3860
   13CHTO   C90 5215   4.349   4.916  -0.058 -1.0292  0.6707 -0.6874
   13CHTO   O60 5216   4.485   4.905  -0.104 -0.1785  0.2712  0.4744
   13CHTO  H138 5217   4.498   4.820  -0.142  2.8592  0.3418  1.2814
   13CHTO   O50 5218   3.957   4.917   0.119 -0.6199  0.0397 -0.2083
   13CHTO   C73 5219   3.843   4.882   0.034 -0.1004  0.0236  0.2462
   13CHTO  H145 5220   3.878   4.864  -0.069  0.6808 -0.6472  0.6294
   13CHTO   C74 5221   3.730   4.986   0.053 -0.0940 -0.3450 -0.3572
   13CHTO  H146 5222   3.767   5.078   0.005 -1.8175  1.2365  1.2874
   13CHTO   O54 5223   3.619   4.941  -0.029  0.2142 -0.5105 -0.1060
   13CHTO  H133 5224   3.565   5.013  -0.056 -0.3547 -1.1131 -0.5912
   13CHTO   C75 5225   3.692   5.014   0.201 -0.3494 -0.2118 -0.6326
   13CHTO  H147 5226   3.782   5.042   0.258 -1.0423  0.9048 -0.0689
   13CHTO   N13 5227   3.594   5.120   0.218 -0.6553 -0.3574  0.2964
   13CHTO  H139 5228   3.620   5.193   0.293 -1.5411 -0.3858  0.6278
   13CHTO  H140 5229   3.594   5.172   0.123 -0.9887  1.4203  1.2503
   13CHTO   C76 5230   3.635   4.869   0.253 -0.1439 -0.4915  0.0375
   13CHTO  H148 5231   3.545   4.849   0.194  0.6814 -1.4062 -0.9405
   13CHTO   O49 5232   3.735   4.768   0.229 -0.2462  0.4289 -0.1454
   13CHTO   C77 5233   3.786   4.749   0.093  0.4393 -0.7506  0.1984
   13CHTO  H149 5234   3.707   4.713   0.028  1.5595  0.6912 -2.0186
   13CHTO   C88 5235   3.892   4.635   0.089 -0.1840 -0.6158 -0.0255
   13CHTO   O58 5236   3.839   4.517   0.171 -0.4467 -0.4327  0.4444
   13CHTO  H136 5237   3.910   4.462   0.198 -0.0743 -0.9510 -1.4815
   13CHTO   O51 5238   3.606   4.862   0.428  0.5199  0.4356 -0.6330
   13CHTO   C78 5239   3.712   4.908   0.540 -0.3609 -0.2331 -0.0862
   13CHTO  H150 5240   3.676   4.871   0.638  3.0709  0.5372  1.5497
   13CHTO   C80 5241   3.732   5.057   0.553  0.2377  0.1214 -0.3802
   13CHTO  H152 5242   3.774   5.093   0.457 -1.1412 -0.6610 -1.2850
   13CHTO   O55 5243   3.603   5.127   0.570 -0.3583 -0.1181  0.2283
   13CHTO  H134 5244   3.576   5.128   0.660  0.7566  2.0148  0.5469
   13CHTO   C84 5245   3.836   5.102   0.666 -0.1778  0.3591  0.5991
   13CHTO  H156 5246   3.776   5.091   0.757  0.1967  2.7576  1.1879
   13CHTO   N15 5247   3.872   5.248   0.659 -0.2658 -0.1697  0.1516
   13CHTO  H143 5248   3.890   5.282   0.759  2.9674  1.1399 -0.8156
   13CHTO  H144 5249   3.784   5.297   0.624 -0.2708 -0.3691 -0.1165
   13CHTO   C87 5250   3.963   5.016   0.659  0.7304 -0.0139  0.1034
   13CHTO  H159 5251   4.011   5.040   0.564  1.0434 -2.0812 -0.3024
   13CHTO   O53 5252   3.924   4.877   0.655 -0.4167  0.7005  0.2992
   13CHTO   C82 5253   3.849   4.835   0.537 -0.6241 -0.2993 -0.1776
   13CHTO  H154 5254   3.902   4.849   0.443  0.3792  0.0487  0.4263
   13CHTO   C89 5255   3.823   4.688   0.550  0.3814 -0.1599 -0.0245
   13CHTO   O59 5256   3.943   4.614   0.568 -0.0296  0.1198 -0.7879
   13CHTO  H137 5257   4.004   4.624   0.497  1.2174  2.0948  0.5166
   13CHTO   O45 5258   4.067   5.021   0.785  0.0550 -0.6813  0.0328
   13CHTO   C67 5259   4.204   4.996   0.744  0.1332  0.8045 -1.1108
   13CHTO  H124 5260   4.207   4.925   0.661  2.2928  0.5930 -0.8914
   13CHTO   C65 5261   4.285   5.123   0.697  0.3067  0.0507 -0.2580
   13CHTO  H122 5262   4.212   5.185   0.645  0.0157 -0.0081  0.0811
   13CHTO   O44 5263   4.398   5.080   0.615  0.3118  0.2321  0.1487
   13CHTO  H102 5264   4.472   5.050   0.663  0.3240  2.2330  1.4601
   13CHTO   C63 5265   4.308   5.223   0.816 -0.1971  0.3481  0.2502
   13CHTO  H120 5266   4.213   5.269   0.844 -0.4360 -0.6007  1.0547
   13CHTO   N11 5267   4.385   5.348   0.777  0.2785 -0.2356 -0.2429
   13CHTO  H108 5268   4.326   5.437   0.782 -0.7480 -0.8973 -0.4652
   13CHTO  H109 5269   4.415   5.343   0.674  1.4913  0.3632  0.0741
   13CHTO   C61 5270   4.363   5.147   0.947  0.2165 -0.3785  0.3113
   13CHTO  H118 5271   4.324   5.207   1.030  0.2242 -1.1582  0.8800
   13CHTO   O40 5272   4.308   5.007   0.966 -0.2565 -0.3787 -0.5707
   13CHTO   C68 5273   4.285   4.929   0.856  0.2348  0.1272 -0.3189
   13CHTO  H125 5274   4.216   4.850   0.893  0.8015  0.9816  2.6527
   13CHTO   C72 5275   4.412   4.852   0.812 -0.2181  0.0927 -0.1473
   13CHTO   O48 5276   4.368   4.736   0.745 -0.4977  0.1440 -0.0083
   13CHTO  H105 5277   4.401   4.654   0.775  0.2014 -0.2599 -1.8069
   13CHTO   O38 5278   4.506   5.143   0.951  0.4386 -0.1011 -0.0237
   13CHTO   C55 5279   4.576   5.055   1.037  0.5226  0.0195 -0.4838
   13CHTO  H112 5280   4.551   4.949   1.027 -1.8994  0.6422 -1.4169
   13CHTO   C56 5281   4.572   5.107   1.186 -0.3042  0.5721  0.3234
   13CHTO  H113 5282   4.568   5.217   1.187  0.2011  0.6818 -2.6659
   13CHTO   O42 5283   4.443   5.072   1.230 -0.6769  0.5243 -0.1783
   13CHTO  H100 5284   4.445   4.990   1.276  0.9084  0.1127 -0.9636
   13CHTO   C57 5285   4.690   5.046   1.282 -0.5253  0.8352  0.5735
   13CHTO  H114 5286   4.664   4.942   1.302  0.2938  1.0702  3.0864
   13CHTO   N10 5287   4.703   5.106   1.420 -0.1870  0.0255  0.4433
   13CHTO  H106 5288   4.639   5.045   1.482 -2.4913 -0.7204 -2.5695
   13CHTO  H107 5289   4.666   5.208   1.419 -1.1953 -0.3439  0.1329
   13CHTO   C58 5290   4.823   5.052   1.210  0.0189  0.5997 -0.1973
   13CHTO  H115 5291   4.855   5.157   1.200  1.7760  0.0282 -0.7172
   13CHTO   O37 5292   4.821   4.993   1.082 -0.3340 -0.4047 -0.0714
   13CHTO   C59 5293   4.730   5.061   0.994 -0.3549 -0.3927 -0.2668
   13CHTO  H116 5294   4.753   5.168   0.990  1.0849 -0.6414  1.0660
   13CHTO   C70 5295   4.744   5.014   0.847  0.5967  0.1169  0.7799
   13CHTO   O46 5296   4.874   5.040   0.795  0.2319 -0.1629  0.1609
   13CHTO  H103 5297   4.887   5.133   0.795 -0.9532  0.0145  0.6322
   13CHTO   O39 5298   4.938   4.960   1.281 -0.3053 -0.1433  0.6663
   13CHTO   C60 5299   5.070   5.022   1.265 -0.0734 -0.5013 -0.5610
   13CHTO  H117 5300   5.079   5.057   1.163 -1.3980  2.4668  0.2710
   13CHTO   C62 5301   5.092   5.150   1.349  0.1214 -0.4521  0.3892
   13CHTO  H119 5302   5.013   5.223   1.322 -0.5255 -1.3077 -0.0807
   13CHTO   O43 5303   5.075   5.117   1.493 -0.2736 -0.1111  0.2379
   13CHTO  H101 5304   4.991   5.077   1.508 -1.1851  1.6127 -0.1739
   13CHTO   C66 5305   5.228   5.221   1.322 -0.1378 -0.2576  0.4346
   13CHTO  H123 5306   5.237   5.231   1.214 -1.8267  1.1149  0.4040
   13CHTO   N12 5307   5.234   5.361   1.379 -0.3558  0.3306 -0.7943
   13CHTO  H110 5308   5.336   5.381   1.409 -1.1850  0.5525  2.0100
   13CHTO  H111 5309   5.192   5.435   1.312 -1.8929 -0.8340 -1.1253
   13CHTO   C69 5310   5.345   5.127   1.369  0.4766  0.3250 -0.1017
   13CHTO  H126 5311   5.336   5.099   1.476 -0.6384  1.0148 -0.0084
   13CHTO   O41 5312   5.340   4.982   1.270  0.2832  0.7518 -0.1126
   13CHTO   C64 5313   5.185   4.919   1.285  0.0810  0.7455 -0.0470
   13CHTO  H121 5314   5.171   4.869   1.384 -1.0047  1.7794  0.3372
   13CHTO   C71 5315   5.184   4.800   1.176  0.3018 -0.7051 -0.2149
   13CHTO   O47 5316   5.109   4.678   1.191 -0.0823 -0.7710 -0.0882
   13CHTO  H104 5317   5.123   4.635   1.273  2.1325 -0.8501 -0.4754
   13CHTO   O34 5318   5.504   5.194   1.359  0.1655  1.0551  0.4682
   13CHTO   C49 5319   5.599   5.234   1.244 -0.4291  0.6780  0.1024
   13CHTO   H91 5320   5.624   5.142   1.191  1.7017  2.9111 -2.9968
   13CHTO   C47 5321   5.723   5.288   1.319  0.0284 -0.1291 -0.5469
   13CHTO   H89 5322   5.790   5.308   1.233  1.0670 -2.4686 -0.3243
   13CHTO   O33 5323   5.792   5.188   1.399 -0.1191  0.3803  0.0956
   13CHTO   H70 5324   5.736   5.147   1.463  0.9415  1.2285  1.6092
   13CHTO   C45 5325   5.689   5.425   1.391  0.1663 -0.3249 -0.4884
   13CHTO   H87 5326   5.599   5.413   1.453  1.0010  1.6170  1.1766
   13CHTO    N8 5327   5.803   5.483   1.468 -0.1559  0.0949  0.4102
   13CHTO   H75 5328   5.885   5.508   1.402 -0.7078  0.0382 -0.3056
   13CHTO   H76 5329   5.849   5.409   1.532 -2.6214 -2.3840 -0.5646
   13CHTO   C43 5330   5.624   5.528   1.284  0.2241 -0.5952 -0.2686
   13CHTO   H85 5331   5.589   5.606   1.351 -0.6604 -1.4285  0.2488
   13CHTO   O29 5332   5.515   5.470   1.212  0.3150 -0.3726  0.4335
   13CHTO   C50 5333   5.536   5.342   1.145  0.2487  0.1717  0.0943
   13CHTO   H92 5334   5.438   5.303   1.113  1.8796 -3.3307 -0.8205
   13CHTO   C54 5335   5.606   5.348   0.995 -0.0483  0.4530 -0.2056
   13CHTO   O36 5336   5.643   5.213   0.960  0.2823  0.0469 -0.2156
   13CHTO   H72 5337   5.576   5.163   0.918  0.3434  0.3635 -0.7024
   13CHTO   O27 5338   5.717   5.593   1.196 -0.2007  0.3951 -0.7080
   13CHTO   C37 5339   5.744   5.719   1.127 -0.4428  0.7536 -0.6916
   13CHTO   H79 5340   5.684   5.748   1.040 -0.4698  1.1484 -0.5398
   13CHTO   C38 5341   5.740   5.834   1.229  0.6386 -0.7685 -0.1607
   13CHTO   H80 5342   5.814   5.818   1.309 -0.5429 -0.5681  0.9817
   13CHTO   O31 5343   5.610   5.852   1.280  0.1259  0.0564  0.2169
   13CHTO   H68 5344   5.581   5.779   1.331 -2.6810  0.4063 -0.7536
   13CHTO   C39 5345   5.774   5.970   1.150 -0.2861  0.7587  0.0228
   13CHTO   H81 5346   5.685   5.997   1.093  0.3145  2.8414  0.0513
   13CHTO    N7 5347   5.797   6.084   1.239  0.0192 -0.3827  0.3104
   13CHTO   H73 5348   5.779   6.060   1.343 -0.3918  0.9297  0.5501
   13CHTO   H74 5349   5.743   6.172   1.207  3.3531  1.6645  0.0213
   13CHTO   C40 5350   5.897   5.960   1.051  0.0507  0.1704  0.5549
   13CHTO   H82 5351   5.989   5.996   1.096 -1.8309  2.9994  2.2962
   13CHTO   O26 5352   5.910   5.832   0.986  0.5896 -0.4293 -0.2879
   13CHTO   C41 5353   5.889   5.716   1.079 -0.0407 -0.1529  0.0266
   13CHTO   H83 5354   5.965   5.706   1.158 -2.1540 -0.0824  2.1180
   13CHTO   C52 5355   5.909   5.586   0.985  0.4571  0.2041 -0.9527
   13CHTO   O35 5356   6.065   5.547   0.952 -0.2344  0.2484  0.1607
   13CHTO   H71 5357   6.114   5.626   0.941 -3.2326  1.9506 -1.6711
   13CHTO   O28 5358   5.867   6.020   0.924  0.8451  0.0147 -0.7216
   13CHTO   C42 5359   5.942   6.133   0.866  0.4419 -0.2452 -0.0337
   13CHTO   H84 5360   6.027   6.088   0.815  0.4902 -0.9736  0.6868
   13CHTO   C44 5361   6.006   6.242   0.968  0.1416 -0.1471 -0.3902
   13CHTO   H86 5362   5.929   6.268   1.041  1.3629  0.7438  0.6133
   13CHTO   O32 5363   6.109   6.168   1.028  0.1255 -0.0867 -0.6957
   13CHTO   H69 5364   6.186   6.220   1.041  0.1102 -0.0832 -0.6219
   13CHTO   C48 5365   6.052   6.370   0.886  0.0312 -0.2734 -0.3255
   13CHTO   H90 5366   6.133   6.344   0.818 -0.2338 -1.7373 -0.0937
   13CHTO    N9 5367   6.104   6.472   0.979 -0.7559  0.6093 -0.5594
   13CHTO   H77 5368   6.174   6.431   1.050 -1.7803  0.3268  0.2899
   13CHTO   H78 5369   6.150   6.559   0.934  0.5745  1.1770  1.8048
   13CHTO   C51 5370   5.934   6.423   0.799 -0.1632 -0.8726  0.3714
   13CHTO   H93 5371   5.846   6.434   0.862 -2.3081  0.7813 -2.7616
   13CHTO   O30 5372   5.919   6.321   0.700  0.7710 -0.6055  0.1344
   13CHTO   C46 5373   5.849   6.203   0.755  0.4300 -0.6123 -0.1547
   13CHTO   H88 5374   5.749   6.237   0.781  0.3554  0.1816 -1.4277
   13CHTO   C53 5375   5.826   6.101   0.643  0.4142  0.7259 -0.9986
   13CHTO   O72 5376   5.952   6.051   0.594 -0.1283 -0.2211 -0.8360
   13CHTO  H199 5377   5.924   5.991   0.527 -1.5868  0.0621 -0.5107
   13CHTO   O22 5378   5.965   6.538   0.721  0.0288  0.1737  0.2253
   13CHTO   C31 5379   5.857   6.624   0.670  0.2426  0.0104  0.2890
   13CHTO   H59 5380   5.902   6.704   0.607 -1.5288  0.4283 -0.4826
   13CHTO   C29 5381   5.755   6.554   0.580  0.4950  0.3145 -0.0553
   13CHTO   H57 5382   5.719   6.461   0.627  2.0054  0.9720  2.5100
   13CHTO   O21 5383   5.834   6.503   0.471  0.3534 -0.0499  0.0956
   13CHTO   H37 5384   5.926   6.510   0.482  0.1613  1.5095  0.7812
   13CHTO   C27 5385   5.633   6.642   0.541 -0.2996 -0.1119 -0.1359
   13CHTO   H55 5386   5.666   6.715   0.465  2.2228 -1.2350 -0.1802
   13CHTO    N5 5387   5.527   6.554   0.489  0.3349  0.6693 -0.3794
   13CHTO   H43 5388   5.443   6.611   0.450 -0.3659 -0.2468 -0.2334
   13CHTO   H44 5389   5.569   6.492   0.411  1.1029 -1.5870  1.7781
   13CHTO   C25 5390   5.581   6.730   0.663 -0.4880  0.0835 -1.0322
   13CHTO   H53 5391   5.538   6.666   0.742  2.5649  0.4496  1.0184
   13CHTO   O17 5392   5.691   6.797   0.728 -0.1524 -0.0094 -0.2173
   13CHTO   C32 5393   5.778   6.702   0.785 -0.0805 -0.4515  0.1640
   13CHTO   H60 5394   5.719   6.634   0.846  1.5107 -2.4023 -0.4273
   13CHTO   C36 5395   5.879   6.773   0.871 -0.1039  0.0414  0.2565
   13CHTO   O25 5396   5.938   6.888   0.808  0.9421 -0.4737 -0.0381
   13CHTO   H40 5397   5.975   6.860   0.727  1.1882  0.6721 -0.3244
   13CHTO   O15 5398   5.492   6.813   0.628  0.2418  0.7937  0.1767
   13CHTO   C19 5399   5.379   6.883   0.673  0.0058 -0.5858 -0.1413
   13CHTO   H47 5400   5.373   6.847   0.776  0.4277  0.5577  0.2963
   13CHTO   C20 5401   5.393   7.035   0.667 -0.7212  0.0326 -0.3007
   13CHTO   H48 5402   5.431   7.072   0.571 -0.0136  1.9397  0.6850
   13CHTO   O19 5403   5.486   7.072   0.772 -0.5410 -0.2485 -0.3474
   13CHTO   H35 5404   5.575   7.070   0.742 -1.0713  2.6231 -2.3215
   13CHTO   C21 5405   5.256   7.121   0.678 -0.3053  0.2907 -0.2100
   13CHTO   H49 5406   5.221   7.118   0.781  1.1637  1.3033  0.3269
   13CHTO    N4 5407   5.262   7.266   0.645 -0.5573  0.4102 -0.3221
   13CHTO   H41 5408   5.220   7.316   0.731 -0.6343 -0.5826  0.2221
   13CHTO   H42 5409   5.367   7.291   0.647 -0.5476  0.3379  0.3405
   13CHTO   C22 5410   5.137   7.052   0.609 -0.0340 -0.2781  0.6231
   13CHTO   H50 5411   5.149   7.058   0.501 -1.1191  0.1133  0.5150
   13CHTO   O14 5412   5.135   6.915   0.648 -0.4349 -0.8810  0.0990
   13CHTO   C23 5413   5.248   6.837   0.603 -0.4401 -0.4714 -0.0927
   13CHTO   H51 5414   5.254   6.854   0.494 -2.0393  0.7071 -0.0012
   13CHTO   C34 5415   5.212   6.694   0.620 -0.0512 -0.0734  0.3018
   13CHTO   O23 5416   5.097   6.647   0.552 -0.3472 -0.0214  0.2214
   13CHTO   H38 5417   5.094   6.555   0.569  0.8376  0.0902  1.1025
   13CHTO   O16 5418   5.008   7.105   0.661 -0.2847 -0.2629 -0.5648
   13CHTO   C24 5419   4.889   7.083   0.572  0.0634  0.2576  0.4790
   13CHTO   H52 5420   4.912   7.019   0.487 -1.1748  0.5584 -0.0986
   13CHTO   C26 5421   4.835   7.211   0.519 -0.6273 -0.2602 -0.1058
   13CHTO   H54 5422   4.814   7.273   0.608 -0.6156  1.0358 -0.9917
   13CHTO   O20 5423   4.937   7.295   0.459  0.4765 -0.2991  0.5377
   13CHTO   H36 5424   4.926   7.293   0.366 -0.6906 -0.6682  0.6697
   13CHTO   C30 5425   4.701   7.191   0.438  0.7140 -0.3975  0.1134
   13CHTO   H58 5426   4.717   7.135   0.344  2.5990 -0.3611  0.4013
   13CHTO    N6 5427   4.644   7.314   0.384  0.5863 -0.1633  0.6613
   13CHTO   H45 5428   4.718   7.377   0.337  0.4708  1.2134  2.2506
   13CHTO   H46 5429   4.566   7.295   0.311  2.3558 -1.7079 -0.8551
   13CHTO   C33 5430   4.597   7.106   0.519 -0.0878  0.2105 -0.4674
   13CHTO   H61 5431   4.563   7.169   0.602 -3.6525 -1.1399 -0.8005
   13CHTO   O18 5432   4.659   6.986   0.577  0.1583  0.1298 -0.1251
   13CHTO   C28 5433   4.776   7.010   0.655 -0.2120  0.1002  0.1924
   13CHTO   H56 5434   4.753   7.066   0.746  1.7089 -1.0754  1.4452
   13CHTO   C35 5435   4.824   6.869   0.694 -0.1843 -0.0173 -0.0938
   13CHTO   O24 5436   4.717   6.813   0.771  0.1717  0.0529  0.6825
   13CHTO   H39 5437   4.716   6.719   0.772 -1.9571  0.0412  0.5029
   13CHTO    O9 5438   4.478   7.074   0.441  0.5124 -0.1041 -0.8304
   13CHTO   C13 5439   4.342   7.004   0.542 -0.1897  0.0051 -0.5497
   13CHTO   H26 5440   4.312   7.085   0.612 -0.5037  0.7243 -1.4941
   13CHTO   C11 5441   4.386   6.873   0.624  0.0971 -0.7327 -0.1152
   13CHTO   H24 5442   4.453   6.907   0.705 -0.2368 -0.2383 -0.0422
   13CHTO    O8 5443   4.455   6.794   0.528  0.1572  0.0665  0.3454
   13CHTO    H3 5444   4.511   6.737   0.577 -0.1996 -0.6507 -0.0715
   13CHTO    C9 5445   4.266   6.807   0.697 -0.2132 -0.1511  0.5962
   13CHTO   H22 5446   4.239   6.877   0.778 -1.3726 -0.8541  0.8188
   13CHTO    N2 5447   4.313   6.693   0.779  0.6613  0.3853 -0.3188
   13CHTO   H10 5448   4.373   6.628   0.717 -0.0649  1.1933 -1.9044
   13CHTO   H11 5449   4.384   6.730   0.851 -0.6015 -1.9895  2.2396
   13CHTO    C7 5450   4.151   6.782   0.591 -0.4629  0.7108  0.5627
   13CHTO   H20 5451   4.067   6.837   0.638 -1.9596  0.1698 -1.4088
   13CHTO    O4 5452   4.174   6.833   0.459  0.2100  0.2256  0.3624
   13CHTO   C14 5453   4.216   6.969   0.451 -0.4499  0.1202 -0.0035
   13CHTO   H27 5454   4.127   7.025   0.487  1.9768  3.7801  0.5407
   13CHTO   C18 5455   4.226   6.995   0.296 -0.4009  0.5283  0.0137
   13CHTO   O13 5456   4.104   6.962   0.222  0.3512  0.5200  0.1083
   13CHTO    H7 5457   4.035   7.025   0.218  0.0146  0.1644  0.2912
   13CHTO    O2 5458   4.111   6.626   0.572 -0.1397 -0.2904 -0.3552
   13CHTO    C1 5459   3.973   6.599   0.576 -0.1794  0.4172  0.2538
   13CHTO   H14 5460   3.905   6.682   0.547  1.0442  1.5475  0.5715
   13CHTO    C2 5461   3.923   6.561   0.724  0.0909  0.4282 -0.4155
   13CHTO   H15 5462   3.987   6.479   0.759  1.9121  1.7124 -0.6817
   13CHTO    O6 5463   3.945   6.670   0.814  0.3045 -0.8863 -0.0459
   13CHTO    H1 5464   3.924   6.648   0.902 -1.0347  0.5303  0.0310
   13CHTO    C3 5465   3.773   6.515   0.726  0.2638 -1.0097 -0.6933
   13CHTO   H16 5466   3.732   6.613   0.698  0.2415 -0.7364  0.2539
   13CHTO    N1 5467   3.723   6.484   0.865 -0.8883  0.5274  0.8523
   13CHTO    H8 5468   3.686   6.384   0.881  0.5937 -0.5430 -2.1546
   13CHTO    H9 5469   3.791   6.521   0.940  0.4718  0.1489 -0.1716
   13CHTO    C4 5470   3.744   6.419   0.611 -0.8964  0.2298  0.0598
   13CHTO   H17 5471   3.781   6.322   0.643 -2.5618  0.2132  2.0431
   13CHTO    O1 5472   3.799   6.455   0.485  0.4077  0.5215  0.5899
   13CHTO    C5 5473   3.941   6.486   0.485 -0.2312  0.1127 -0.9680
   13CHTO   H18 5474   3.999   6.403   0.525  1.0241  1.1340 -0.6619
   13CHTO   C16 5475   3.977   6.517   0.337  0.1522  0.7511 -0.5156
   13CHTO   O11 5476   3.903   6.442   0.242 -0.2778  0.4785  0.4418
   13CHTO    H5 5477   3.902   6.495   0.165  4.2446 -1.1617 -0.9115
   13CHTO    O3 5478   3.605   6.417   0.585 -0.0114  0.2290 -0.0689
   13CHTO    C6 5479   3.554   6.286   0.547  0.5643 -0.3348  0.6304
   13CHTO   H19 5480   3.469   6.293   0.479 -1.0770  0.3808  2.7281
   13CHTO    C8 5481   3.650   6.197   0.448  0.6612 -0.2025 -0.4997
   13CHTO   H21 5482   3.747   6.192   0.498 -0.9733  2.0667  3.1313
   13CHTO    O7 5483   3.663   6.272   0.330 -0.1780 -0.6034 -0.0262
   13CHTO    H2 5484   3.698   6.223   0.258  0.0993  0.8425 -0.8811
   13CHTO   C12 5485   3.594   6.056   0.423 -0.4826  0.3692  0.2937
   13CHTO   H25 5486   3.500   6.075   0.367 -1.5028 -2.0277  1.1508
   13CHTO    N3 5487   3.691   5.976   0.337  0.2203  0.3149  0.2802
   13CHTO   H12 5488   3.795   5.978   0.365  0.6352  0.9790 -1.2983
   13CHTO   H13 5489   3.665   5.872   0.325 -0.7349  0.5989 -0.1380
   13CHTO   C15 5490   3.557   6.000   0.560  0.4435 -0.0005 -0.0573
   13CHTO   H28 5491   3.644   5.991   0.626  1.7572  0.3718 -1.6895
   13CHTO   O10 5492   3.492   5.844   0.546 -0.4156 -0.2565  0.3718
   13CHTO    H4 5493   3.423   5.842   0.483 -1.6924  0.0560  1.7530
   13CHTO    O5 5494   3.455   6.079   0.621 -0.0717 -0.3491  0.9725
   13CHTO   C10 5495   3.510   6.202   0.674  0.8641  0.1558  0.3025
   13CHTO   H23 5496   3.596   6.178   0.737  1.3243  1.6636  0.2796
   13CHTO   C17 5497   3.401   6.286   0.752  0.1182  0.4217  0.1913
   13CHTO   O12 5498   3.384   6.236   0.884  0.0201  0.1870 -0.3016
   13CHTO    H6 5499   3.304   6.187   0.895 -1.1926  2.5821  2.1475
   14CHTO  H203 5500   5.487   4.539   3.481  1.5714  0.9072  0.8409
   14CHTO   O82 5501   5.423   4.583   3.534  0.2586 -0.0183  0.0460
   14CHTO  C123 5502   5.314   4.493   3.543 -0.1299  0.7182  0.3808
   14CHTO  H227 5503   5.317   4.440   3.639  3.2841 -2.0870 -1.1721
   14CHTO   O77 5504   5.197   4.583   3.536 -0.1665 -0.4574 -0.1422
   14CHTO  C118 5505   5.074   4.520   3.567 -0.0239 -0.2932  0.3321
   14CHTO  H222 5506   5.088   4.488   3.671  0.3149 -3.2716 -0.5973
   14CHTO  C125 5507   4.962   4.623   3.556 -0.6143  0.4654 -0.2119
   14CHTO   O84 5508   4.968   4.713   3.446 -0.0021 -0.0739  0.7105
   14CHTO  H205 5509   4.914   4.680   3.377 -0.5483  1.3390  0.4574
   14CHTO  C114 5510   5.045   4.405   3.462  0.3880 -0.0236 -0.6774
   14CHTO  H218 5511   5.023   4.450   3.365 -2.4693  0.2552  0.0574
   14CHTO  C116 5512   5.167   4.307   3.439  0.2777 -0.7247  0.3409
   14CHTO  H220 5513   5.172   4.239   3.526 -0.1320  1.2827  1.9704
   14CHTO   O79 5514   5.140   4.230   3.330  0.0765 -0.1207  0.2080
   14CHTO  H201 5515   5.160   4.274   3.250  0.7315  0.1229  0.5072
   14CHTO  C120 5516   5.300   4.392   3.424  0.4972 -0.0561 -0.4652
   14CHTO  H224 5517   5.288   4.446   3.328  1.0011  1.3988  0.2818
   14CHTO   N21 5518   5.419   4.304   3.418  0.2456 -0.1606  0.2890
   14CHTO  H211 5519   5.432   4.269   3.317 -1.1367 -2.9355  1.0024
   14CHTO  H212 5520   5.399   4.220   3.483  1.2986 -0.4881  0.1981
   14CHTO   O75 5521   4.924   4.338   3.505 -0.6880 -0.8368 -0.1461
   14CHTO  C112 5522   4.839   4.213   3.410 -0.2058 -0.1422 -0.2432
   14CHTO  H216 5523   4.885   4.116   3.432 -0.5513 -0.1308  0.5545
   14CHTO   O73 5524   4.855   4.252   3.268 -0.1055  1.1065  0.3950
   14CHTO  C113 5525   4.805   4.159   3.167 -0.3483  0.1641 -0.2553
   14CHTO  H217 5526   4.860   4.064   3.182 -0.3343  0.0434 -1.0200
   14CHTO  C124 5527   4.828   4.211   3.021  0.7643 -0.6920  0.3738
   14CHTO   O83 5528   4.955   4.261   3.001  0.1466  0.0255  1.1004
   14CHTO  H204 5529   5.027   4.201   3.010  0.3144  0.5847  3.7398
   14CHTO  C109 5530   4.654   4.138   3.200  0.1506  0.6738 -0.1331
   14CHTO  H213 5531   4.599   4.225   3.163 -0.9119  0.0197 -0.1015
   14CHTO  C110 5532   4.623   4.112   3.352  0.8995 -0.2728 -0.1389
   14CHTO  H214 5533   4.641   4.008   3.381  1.1442  0.5675  2.8511
   14CHTO   O78 5534   4.478   4.133   3.364  0.0074 -0.5328  0.2394
   14CHTO  H200 5535   4.450   4.097   3.446  0.2046 -0.9734  0.1120
   14CHTO  C111 5536   4.692   4.217   3.443 -0.4021 -0.1950  0.2168
   14CHTO  H215 5537   4.640   4.311   3.419  2.6018  1.1807 -1.1547
   14CHTO   N19 5538   4.678   4.193   3.592  0.0161  0.2042 -1.0164
   14CHTO  H207 5539   4.712   4.286   3.636 -0.0562 -0.7749  1.1639
   14CHTO  H208 5540   4.741   4.115   3.631 -1.5768 -1.4297 -1.6122
   14CHTO   O74 5541   4.607   4.023   3.129  0.0429  0.1653 -0.1356
   14CHTO  C115 5542   4.511   4.062   2.987 -0.1036 -0.6303 -0.5955
   14CHTO  H219 5543   4.547   4.152   2.939  0.3857 -0.2767  0.4236
   14CHTO   O76 5544   4.521   3.946   2.878 -0.2077 -0.3297 -0.0941
   14CHTO  C122 5545   4.470   3.811   2.905  0.4959  0.0282  0.1447
   14CHTO  H226 5546   4.557   3.764   2.950  0.2485 -0.0951  0.4931
   14CHTO  C126 5547   4.436   3.730   2.765 -0.0668  1.0344 -0.2032
   14CHTO   O85 5548   4.312   3.782   2.714 -0.1912  0.7507 -0.2244
   14CHTO  H206 5549   4.238   3.736   2.749 -1.1397  1.3703 -1.3643
   14CHTO  C121 5550   4.336   3.824   3.000 -0.7347  0.1055  0.2411
   14CHTO  H225 5551   4.257   3.747   2.988 -1.4032  0.4591  2.2042
   14CHTO   O81 5552   4.372   3.793   3.132 -0.2414  0.1389  0.4531
   14CHTO  H202 5553   4.312   3.835   3.192  0.0043  0.4843  0.4555
   14CHTO  C119 5554   4.269   3.968   2.985  1.1927  0.8475  0.1964
   14CHTO  H223 5555   4.264   3.991   2.879 -3.0097 -1.4298 -0.2136
   14CHTO  C117 5556   4.364   4.082   3.035  0.4136 -0.1411 -0.3936
   14CHTO  H221 5557   4.364   4.090   3.144 -2.8734 -1.8244 -0.2103
   14CHTO   N20 5558   4.318   4.217   2.991  0.2291 -0.3591 -0.2621
   14CHTO  H209 5559   4.326   4.222   2.883  1.0314 -0.5875 -0.2108
   14CHTO  H210 5560   4.385   4.289   3.034  0.1852 -1.3367  1.4517
   14CHTO   O80 5561   4.090   3.968   3.024 -0.4609  0.2607  0.4090
   14CHTO  C103 5562   3.981   4.041   2.907  0.2988  0.3252 -0.2661
   14CHTO  H190 5563   4.023   4.127   2.854  0.9591  0.2775  0.1704
   14CHTO  C101 5564   3.920   3.938   2.809 -0.6908  0.1123 -0.8416
   14CHTO  H188 5565   3.861   3.858   2.853  1.0134 -0.3386  0.6851
   14CHTO   O68 5566   4.035   3.886   2.723  0.0367  0.3011 -0.4824
   14CHTO  H168 5567   4.078   3.822   2.775 -0.2576 -0.2312 -0.8827
   14CHTO   C99 5568   3.827   4.021   2.702 -1.0988  0.1318  0.5297
   14CHTO  H186 5569   3.899   4.087   2.649  0.0296 -0.9442  0.6879
   14CHTO   N17 5570   3.753   3.941   2.601 -0.4764  0.6049  0.3592
   14CHTO  H174 5571   3.699   3.866   2.657  0.8554 -0.0174  0.8240
   14CHTO  H175 5572   3.815   3.899   2.523 -1.7391 -2.1522  0.7616
   14CHTO   C97 5573   3.723   4.116   2.773  0.5461 -0.4192 -0.1767
   14CHTO  H184 5574   3.635   4.051   2.790  0.0415 -0.1145 -1.5347
   14CHTO   O64 5575   3.768   4.179   2.893  0.4431 -0.1216 -0.0645
   14CHTO  C104 5576   3.854   4.101   2.983  0.2219  0.3788  0.2457
   14CHTO  H191 5577   3.803   4.023   3.040 -1.8568  1.4841 -0.0306
   14CHTO  C108 5578   3.895   4.204   3.088  0.4825 -0.1015 -0.3303
   14CHTO   O71 5579   3.784   4.273   3.154 -0.1339  0.2325  0.4125
   14CHTO  H171 5580   3.802   4.365   3.155 -2.9619  0.8766 -2.0179
   14CHTO   O62 5581   3.697   4.232   2.684  0.1019  0.0844 -0.4610
   14CHTO   C91 5582   3.558   4.270   2.683 -0.1988 -0.2347  0.5482
   14CHTO  H178 5583   3.508   4.208   2.757 -2.0762 -0.0670 -0.5666
   14CHTO   C92 5584   3.497   4.219   2.552 -0.6784 -0.2210 -0.0872
   14CHTO  H179 5585   3.532   4.116   2.533  2.1749  0.0863  2.9475
   14CHTO   O66 5586   3.353   4.202   2.569 -0.1968  0.2034  0.2923
   14CHTO  H166 5587   3.314   4.162   2.494  1.0659 -3.6650  1.5463
   14CHTO   C93 5588   3.515   4.311   2.426  0.2393 -0.0986  0.5096
   14CHTO  H180 5589   3.435   4.289   2.353 -0.1056  0.8494  0.6039
   14CHTO   N16 5590   3.642   4.281   2.362 -0.3061  0.4519  0.9858
   14CHTO  H172 5591   3.644   4.196   2.296  0.5118  1.9581 -0.9851
   14CHTO  H173 5592   3.726   4.284   2.430  1.1863 -1.5451 -0.7210
   14CHTO   C94 5593   3.503   4.462   2.470 -0.2373 -0.0464 -0.1892
   14CHTO  H181 5594   3.600   4.513   2.469  0.3523 -1.1121  1.0859
   14CHTO   O61 5595   3.446   4.477   2.605 -0.3357 -0.3014  0.5622
   14CHTO   C95 5596   3.526   4.419   2.709  0.6090  0.5338  0.5400
   14CHTO  H182 5597   3.621   4.472   2.718  0.3500  1.1904 -0.5404
   14CHTO  C106 5598   3.462   4.445   2.840  0.1824  0.6901 -0.1626
   14CHTO   O69 5599   3.448   4.581   2.871  0.7920 -0.2426 -0.3301
   14CHTO  H169 5600   3.519   4.620   2.919  0.5790  2.8192 -2.3579
   14CHTO   O63 5601   3.416   4.537   2.369 -0.2783  0.1467  0.6564
   14CHTO   C96 5602   3.412   4.709   2.405  0.3060  0.3624 -0.3066
   14CHTO  H183 5603   3.449   4.720   2.507  2.0810 -0.3862 -0.8375
   14CHTO   C98 5604   3.272   4.768   2.394 -0.3925 -0.6168 -0.1412
   14CHTO  H185 5605   3.235   4.757   2.291  1.0713  1.2699 -0.8988
   14CHTO   O67 5606   3.187   4.690   2.476 -0.3856  0.3559  0.2523
   14CHTO  H167 5607   3.210   4.600   2.488 -0.1967  0.5334  1.3198
   14CHTO  C102 5608   3.286   4.919   2.433 -0.3860  0.1071 -0.1502
   14CHTO  H189 5609   3.312   4.924   2.540 -0.0174 -0.5360 -0.2115
   14CHTO   N18 5610   3.154   4.990   2.422  0.0597 -0.1034  0.0013
   14CHTO  H176 5611   3.118   4.969   2.322 -0.0757  1.0602 -0.2011
   14CHTO  H177 5612   3.152   5.095   2.449 -0.0025  0.4764 -2.1769
   14CHTO  C105 5613   3.392   4.991   2.344  0.0239 -0.6066  0.3302
   14CHTO  H192 5614   3.346   5.003   2.246 -2.2923 -0.2517  1.4284
   14CHTO   O65 5615   3.518   4.921   2.344 -0.0256  0.1525  0.0120
   14CHTO  C100 5616   3.507   4.784   2.310  0.1260 -0.1698 -0.2172
   14CHTO  H187 5617   3.465   4.782   2.208 -1.5239 -0.3606  0.4557
   14CHTO  C107 5618   3.652   4.719   2.301  0.5383 -0.2271 -0.0529
   14CHTO   O70 5619   3.742   4.765   2.404  0.3030  0.2806  0.3665
   14CHTO  H170 5620   3.749   4.706   2.477  1.3737 -0.3772 -0.2475
   14CHTO   O57 5621   3.411   5.137   2.404 -0.1296 -0.9073 -0.2838
   14CHTO   C85 5622   3.505   5.221   2.334 -0.7792 -0.3720  0.7268
   14CHTO  H157 5623   3.517   5.182   2.231 -0.6047 -0.2785  0.7109
   14CHTO   C83 5624   3.647   5.192   2.395 -0.1828  0.3660  0.0319
   14CHTO  H155 5625   3.673   5.086   2.389  0.5803  0.5242  0.5111
   14CHTO   O56 5626   3.646   5.221   2.531  0.2077 -0.2653 -0.0737
   14CHTO  H135 5627   3.584   5.287   2.555 -0.4940 -0.8058 -0.3832
   14CHTO   C81 5628   3.757   5.270   2.323 -0.0274  0.4536 -0.3399
   14CHTO  H153 5629   3.752   5.235   2.220 -3.2000  1.9905 -0.7668
   14CHTO   N14 5630   3.895   5.233   2.365 -0.6048  0.2342  0.0479
   14CHTO  H141 5631   3.925   5.134   2.338  1.0909  0.8030 -0.2096
   14CHTO  H142 5632   3.961   5.297   2.311  0.4631 -1.6050 -0.8866
   14CHTO   C79 5633   3.718   5.426   2.334 -0.1530 -0.6999 -0.3252
   14CHTO  H151 5634   3.788   5.482   2.273 -0.6918  1.3043  0.8431
   14CHTO   O52 5635   3.583   5.458   2.276  0.4517  0.5074  0.0505
   14CHTO   C86 5636   3.474   5.376   2.335  0.0384  0.2245 -0.3001
   14CHTO  H158 5637   3.461   5.406   2.441 -0.9406 -2.4216  0.3544
   14CHTO   C90 5638   3.343   5.411   2.266  0.5448 -0.5112 -0.2555
   14CHTO   O60 5639   3.315   5.550   2.270  0.0058 -0.0509  0.2834
   14CHTO  H138 5640   3.222   5.561   2.264 -0.0255 -0.3038  0.2827
   14CHTO   O50 5641   3.736   5.475   2.467  0.1830 -0.9109  0.5203
   14CHTO   C73 5642   3.699   5.573   2.570 -0.3343  0.7696 -0.2724
   14CHTO  H145 5643   3.601   5.550   2.614  0.2991  0.3833  0.9511
   14CHTO   C74 5644   3.688   5.715   2.504 -0.0746 -0.5064  0.7813
   14CHTO  H146 5645   3.612   5.703   2.426 -0.3182 -1.4980  1.1586
   14CHTO   O54 5646   3.643   5.801   2.602  0.5423  0.2197 -0.3049
   14CHTO  H133 5647   3.711   5.854   2.639 -0.5574  0.1983  1.7842
   14CHTO   C75 5648   3.831   5.750   2.447  0.4145 -0.5109 -0.8356
   14CHTO  H147 5649   3.849   5.690   2.356 -0.2131 -1.1156 -0.5673
   14CHTO   N13 5650   3.831   5.893   2.397  0.1239  0.4366 -0.0684
   14CHTO  H139 5651   3.915   5.906   2.331 -0.1942 -2.9175 -1.2371
   14CHTO  H140 5652   3.849   5.947   2.489 -1.4353  1.5815 -0.4136
   14CHTO   C76 5653   3.954   5.720   2.553  0.4282 -0.5346  0.3052
   14CHTO  H148 5654   3.984   5.811   2.605  1.5402  0.3301 -1.7989
   14CHTO   O49 5655   3.944   5.613   2.658 -0.0987  0.7429 -0.2183
   14CHTO   C77 5656   3.812   5.564   2.683  0.8679 -0.3578 -0.1193
   14CHTO  H149 5657   3.776   5.623   2.767 -0.5836  0.8912 -1.5681
   14CHTO   C88 5658   3.806   5.428   2.749  0.6619 -0.6399  0.0005
   14CHTO   O58 5659   3.885   5.423   2.884  0.0608 -0.1528  0.4258
   14CHTO  H136 5660   3.964   5.371   2.882  1.0378  1.3153  0.4044
   14CHTO   O51 5661   4.059   5.665   2.452 -0.7004 -0.1146 -0.7994
   14CHTO   C78 5662   4.217   5.727   2.492  1.0813 -0.0320  0.4373
   14CHTO  H150 5663   4.210   5.795   2.580 -1.6833  0.9546 -0.4902
   14CHTO   C80 5664   4.266   5.807   2.370 -0.2437 -0.1413 -0.5258
   14CHTO  H152 5665   4.258   5.740   2.282 -3.0741  0.5999 -0.9012
   14CHTO   O55 5666   4.167   5.908   2.338 -0.0387 -0.3247  0.4182
   14CHTO  H134 5667   4.160   5.918   2.245 -0.7110 -3.3795  0.0869
   14CHTO   C84 5668   4.413   5.865   2.392 -0.2993 -0.1704  0.5735
   14CHTO  H156 5669   4.414   5.933   2.477  1.3720  1.2691 -0.5317
   14CHTO   N15 5670   4.468   5.936   2.269  0.0131  0.1530 -0.0725
   14CHTO  H143 5671   4.447   5.876   2.183 -0.4788 -0.7045  0.6330
   14CHTO  H144 5672   4.574   5.948   2.275  0.0993 -1.2004  1.4739
   14CHTO   C87 5673   4.505   5.751   2.437 -0.0698  0.1275 -0.0315
   14CHTO  H159 5674   4.539   5.685   2.357 -0.4110  2.3949 -2.1204
   14CHTO   O53 5675   4.444   5.663   2.548 -0.2457 -0.1619 -0.3443
   14CHTO   C82 5676   4.316   5.616   2.523  0.1376  0.5159 -0.5119
   14CHTO  H154 5677   4.323   5.545   2.441  0.6619  0.9640 -0.8600
   14CHTO   C89 5678   4.257   5.540   2.636 -0.0665  0.1674  0.1398
   14CHTO   O59 5679   4.339   5.422   2.667 -0.3920  0.9639 -0.6516
   14CHTO  H137 5680   4.292   5.357   2.716  0.7591 -0.8716 -1.9181
   14CHTO   O45 5681   4.646   5.813   2.494 -0.4981 -0.5672 -0.3061
   14CHTO   C67 5682   4.764   5.724   2.495  0.2665 -0.4918  0.4308
   14CHTO  H124 5683   4.848   5.785   2.529 -1.1193  1.1835  0.9457
   14CHTO   C65 5684   4.748   5.598   2.583 -0.5298  0.2111 -0.2586
   14CHTO  H122 5685   4.648   5.603   2.626 -0.0110  2.4637  0.7575
   14CHTO   O44 5686   4.835   5.604   2.698  0.3967  0.8145  0.0365
   14CHTO  H102 5687   4.915   5.564   2.670  0.5756 -0.8350  2.6676
   14CHTO   C63 5688   4.747   5.468   2.499 -0.3935 -0.4080  0.0663
   14CHTO  H120 5689   4.661   5.473   2.432  0.1242 -1.3890 -0.6843
   14CHTO   N11 5690   4.716   5.339   2.576  0.2556  0.5608  0.3007
   14CHTO  H108 5691   4.708   5.252   2.514  3.0820  0.3548  0.1348
   14CHTO  H109 5692   4.801   5.311   2.636  1.7196  0.5518 -1.7310
   14CHTO   C61 5693   4.875   5.459   2.405  0.2803  0.5191 -0.8659
   14CHTO  H118 5694   4.863   5.393   2.317  1.4105  1.8360 -2.0374
   14CHTO   O40 5695   4.912   5.590   2.349 -0.4730  0.9650 -0.5393
   14CHTO   C68 5696   4.808   5.689   2.341  0.2941 -0.0525  0.0801
   14CHTO  H125 5697   4.721   5.642   2.292 -0.6420  0.8718  0.8141
   14CHTO   C72 5698   4.865   5.804   2.253 -0.1979 -0.4266 -0.2837
   14CHTO   O48 5699   5.002   5.836   2.289 -0.5492 -0.3979  0.4806
   14CHTO  H105 5700   5.009   5.921   2.328 -1.2488 -0.0453 -0.1436
   14CHTO   O38 5701   4.992   5.436   2.485  0.3991  0.7835  0.1798
   14CHTO   C55 5702   5.084   5.334   2.434  0.4622 -0.3993 -0.2652
   14CHTO  H112 5703   5.060   5.324   2.327  1.0365 -2.7008 -0.1997
   14CHTO   C56 5704   5.075   5.196   2.513  0.2453 -0.5783  0.6513
   14CHTO  H113 5705   5.074   5.218   2.620 -0.4191  0.0835  0.5132
   14CHTO   O42 5706   4.941   5.145   2.490  0.0192  0.0738 -0.2093
   14CHTO  H100 5707   4.875   5.191   2.539 -1.0384 -1.5788 -0.0369
   14CHTO   C57 5708   5.186   5.092   2.478 -0.6425  0.1850  0.4989
   14CHTO  H114 5709   5.150   5.047   2.385 -2.6243  1.9399  0.3923
   14CHTO   N10 5710   5.198   4.980   2.575  0.5759  0.1330 -0.5822
   14CHTO  H106 5711   5.138   4.896   2.544 -0.9759 -0.1234  2.8665
   14CHTO  H107 5712   5.164   5.009   2.673  0.3752 -1.0128 -0.3002
   14CHTO   C58 5713   5.321   5.154   2.452 -0.0130 -0.2606  1.0445
   14CHTO  H115 5714   5.362   5.193   2.547 -0.3096 -0.3244  1.1971
   14CHTO   O37 5715   5.305   5.274   2.370 -0.3204  0.3992  0.5350
   14CHTO   C59 5716   5.234   5.382   2.428  0.1905 -0.1276 -0.0699
   14CHTO  H116 5717   5.271   5.395   2.529  2.2525 -1.1089 -0.6663
   14CHTO   C70 5718   5.243   5.513   2.346 -0.2363 -0.4085 -0.3323
   14CHTO   O46 5719   5.201   5.630   2.409 -0.3811  0.4994 -0.8139
   14CHTO  H103 5720   5.212   5.702   2.349 -1.6808  1.2441 -0.1967
   14CHTO   O39 5721   5.418   5.061   2.371 -0.2338  0.0145 -0.8531
   14CHTO   C60 5722   5.545   5.119   2.342 -0.2695 -0.0557  0.0326
   14CHTO  H117 5723   5.549   5.226   2.363  1.2854 -0.2214  0.6665
   14CHTO   C62 5724   5.653   5.037   2.421 -0.0026 -0.1607 -0.6380
   14CHTO  H119 5725   5.631   5.060   2.527  2.2923  2.1287 -0.6053
   14CHTO   O43 5726   5.629   4.895   2.401  0.2290 -0.1834  0.0262
   14CHTO  H101 5727   5.637   4.869   2.311 -0.3362 -0.3610  0.0254
   14CHTO   C66 5728   5.800   5.084   2.380 -0.4873  0.0023  0.4416
   14CHTO  H123 5729   5.803   5.191   2.399  0.6701  0.1432 -0.5296
   14CHTO   N12 5730   5.914   5.024   2.463  0.4121  0.2901  0.3200
   14CHTO  H110 5731   5.902   5.071   2.560  0.4418  2.0225 -0.4941
   14CHTO  H111 5732   5.910   4.917   2.470  3.5842  0.0746 -0.4245
   14CHTO   C69 5733   5.812   5.073   2.227  0.2486  0.5740  0.1101
   14CHTO  H126 5734   5.817   4.969   2.187 -3.8622  0.4012 -0.1025
   14CHTO   O41 5735   5.698   5.158   2.159  0.0026  0.4043 -0.2242
   14CHTO   C64 5736   5.576   5.099   2.186 -0.1941  0.0174 -0.3290
   14CHTO  H121 5737   5.577   4.989   2.172 -0.2416 -0.1415  0.8782
   14CHTO   C71 5738   5.462   5.167   2.099 -0.3334 -0.0308 -0.1478
   14CHTO   O47 5739   5.440   5.311   2.120  0.1611 -0.2160  0.1774
   14CHTO  H104 5740   5.505   5.358   2.071  0.9750 -1.4396  0.0635
   14CHTO   O34 5741   5.958   5.146   2.174  0.0297 -0.0093  0.0628
   14CHTO   C49 5742   6.014   5.292   2.087  0.2009  0.0571  0.5528
   14CHTO   H91 5743   6.080   5.261   2.007 -1.5440  0.7413 -1.2096
   14CHTO   C47 5744   6.085   5.377   2.189  0.5839  0.1137  0.2595
   14CHTO   H89 5745   6.117   5.465   2.130  0.7688  0.1318  0.3840
   14CHTO   O33 5746   6.202   5.298   2.224 -0.1400  0.4426  0.2628
   14CHTO   H70 5747   6.253   5.287   2.146  0.1428  0.3287  0.4656
   14CHTO   C45 5748   5.994   5.424   2.318  0.6559 -0.3963  0.8361
   14CHTO   H87 5749   5.985   5.340   2.389 -0.2686  0.7590  2.1290
   14CHTO    N8 5750   6.066   5.537   2.383 -0.6566 -0.3701 -0.2298
   14CHTO   H75 5751   6.101   5.605   2.306 -2.5273  0.2504 -0.5369
   14CHTO   H76 5752   6.007   5.589   2.457  0.0884  1.2971 -0.7597
   14CHTO   C43 5753   5.840   5.442   2.269 -0.9455 -0.3327 -0.7277
   14CHTO   H85 5754   5.802   5.341   2.283 -0.7383 -0.0867  1.9352
   14CHTO   O29 5755   5.831   5.486   2.132  0.1811 -0.2457  0.3362
   14CHTO   C50 5756   5.890   5.387   2.037 -0.7085 -0.2487  0.5048
   14CHTO   H92 5757   5.815   5.321   1.989  0.9423 -1.8208  0.0415
   14CHTO   C54 5758   5.920   5.471   1.916  0.2755 -0.7537 -0.3348
   14CHTO   O36 5759   5.936   5.387   1.801  0.3006  0.1147 -0.0998
   14CHTO   H72 5760   5.879   5.313   1.801  0.8396 -0.3457  2.2626
   14CHTO   O27 5761   5.762   5.523   2.356 -0.5185 -0.2132 -0.2354
   14CHTO   C37 5762   5.712   5.570   2.481 -0.5906 -0.5673  0.5277
   14CHTO   H79 5763   5.797   5.590   2.548 -1.4980  1.1114  1.2174
   14CHTO   C38 5764   5.638   5.711   2.459  0.6359 -0.2653  0.4178
   14CHTO   H80 5765   5.560   5.704   2.382  1.6188 -1.0691 -0.5099
   14CHTO   O31 5766   5.739   5.809   2.419 -0.0972  0.6865  0.0090
   14CHTO   H68 5767   5.772   5.782   2.336 -1.0054  2.8096 -1.0858
   14CHTO   C39 5768   5.561   5.754   2.589 -0.1786 -0.1642 -0.2292
   14CHTO   H81 5769   5.633   5.778   2.667  0.6875 -1.0447 -0.7454
   14CHTO    N7 5770   5.488   5.889   2.589 -0.1025 -0.1101 -0.7345
   14CHTO   H73 5771   5.419   5.897   2.507 -0.8860 -0.1217 -0.0897
   14CHTO   H74 5772   5.440   5.894   2.686  0.4160 -1.6235 -0.3830
   14CHTO   C40 5773   5.471   5.634   2.641  0.4385  0.0276  0.0959
   14CHTO   H82 5774   5.386   5.622   2.573  1.2922 -0.1109 -0.9713
   14CHTO   O26 5775   5.548   5.519   2.660 -0.0714  0.1219 -0.1116
   14CHTO   C41 5776   5.621   5.468   2.544  0.2008  0.2304 -0.4740
   14CHTO   H83 5777   5.555   5.433   2.462 -0.7779  0.5438  0.1699
   14CHTO   C52 5778   5.701   5.350   2.593  0.3707  0.0795 -0.5245
   14CHTO   O35 5779   5.833   5.384   2.657  0.4753 -0.1501  0.1228
   14CHTO   H71 5780   5.887   5.429   2.594 -0.6216 -1.1747 -1.5954
   14CHTO   O28 5781   5.437   5.647   2.780  0.1342 -0.2002  0.6070
   14CHTO   C42 5782   5.332   5.564   2.850 -0.0323  0.0538  0.4794
   14CHTO   H84 5783   5.338   5.596   2.954  0.6005  0.3565  0.3514
   14CHTO   C44 5784   5.329   5.406   2.855  0.7740 -0.2935  0.1769
   14CHTO   H86 5785   5.313   5.373   2.752  0.7017  0.3572 -0.0235
   14CHTO   O32 5786   5.453   5.352   2.903  0.0516 -0.2321  0.3989
   14CHTO   H69 5787   5.438   5.298   2.978 -0.6985  0.0233  0.4323
   14CHTO   C48 5788   5.199   5.347   2.934 -0.5537 -0.7044 -0.0122
   14CHTO   H90 5789   5.217   5.350   3.041 -0.1941 -0.4844 -0.0772
   14CHTO    N9 5790   5.186   5.201   2.908  0.3540  0.4473  0.5934
   14CHTO   H77 5791   5.206   5.189   2.803 -0.8054  2.5402  0.0965
   14CHTO   H78 5792   5.083   5.178   2.930  0.2939  0.5765  0.4415
   14CHTO   C51 5793   5.062   5.421   2.908  1.2420  0.1347 -0.4055
   14CHTO   H93 5794   5.008   5.381   2.822 -0.7277 -0.8790  1.2514
   14CHTO   O30 5795   5.081   5.560   2.898  0.2508 -0.1503  0.1359
   14CHTO   C46 5796   5.184   5.606   2.809  0.3196 -0.3445  0.6073
   14CHTO   H88 5797   5.153   5.570   2.711  0.9833  4.2637 -1.4543
   14CHTO   C53 5798   5.168   5.759   2.810  0.4582 -0.3554 -0.0248
   14CHTO   O72 5799   5.134   5.811   2.677  0.5259  0.8218 -0.0730
   14CHTO  H199 5800   5.193   5.883   2.667  2.6589 -0.4508  2.6748
   14CHTO   O22 5801   4.977   5.408   3.023 -0.2632  0.5346  0.1678
   14CHTO   C31 5802   4.825   5.434   3.021 -0.1446  0.9657  0.3993
   14CHTO   H59 5803   4.799   5.474   2.921 -1.1191 -0.4690  0.0561
   14CHTO   C29 5804   4.741   5.304   3.047  0.3078  0.0730  1.0541
   14CHTO   H57 5805   4.757   5.268   3.150 -3.0627 -0.3404  1.5014
   14CHTO   O21 5806   4.794   5.196   2.966 -0.1847 -0.3381  0.5457
   14CHTO   H37 5807   4.820   5.236   2.885  0.3470  0.6261  1.1829
   14CHTO   C27 5808   4.583   5.338   3.033  0.1703  0.8523  0.3417
   14CHTO   H55 5809   4.568   5.368   2.929  0.8050 -1.6556 -0.5127
   14CHTO    N5 5810   4.498   5.220   3.057 -0.9170 -0.2711 -0.8047
   14CHTO   H43 5811   4.492   5.198   3.162 -0.6254 -0.3120 -0.7951
   14CHTO   H44 5812   4.398   5.240   3.022 -1.3198  0.0682  0.5188
   14CHTO   C25 5813   4.549   5.458   3.130  0.1809  0.4567  0.4625
   14CHTO   H53 5814   4.562   5.417   3.232  0.1909  0.8871  0.6385
   14CHTO   O17 5815   4.641   5.569   3.110 -0.5366  0.5529 -0.4835
   14CHTO   C32 5816   4.781   5.539   3.120  0.3247 -0.3551  0.7374
   14CHTO   H60 5817   4.807   5.503   3.220  2.8601  0.6621  0.4636
   14CHTO   C36 5818   4.852   5.681   3.122  0.1684  0.1708  0.6131
   14CHTO   O25 5819   4.857   5.734   2.992 -0.5146  0.2386 -0.3080
   14CHTO   H40 5820   4.773   5.743   2.954  0.7758  3.3402 -2.6245
   14CHTO   O15 5821   4.425   5.516   3.114  0.7544 -0.4400 -0.1153
   14CHTO   C19 5822   4.317   5.575   3.033 -0.7543  0.0163 -0.2919
   14CHTO   H47 5823   4.317   5.504   2.949 -0.2487 -1.0402  0.5768
   14CHTO   C20 5824   4.183   5.558   3.108  0.1124 -0.7245  0.6681
   14CHTO   H48 5825   4.194   5.587   3.214  4.5882 -0.5257  0.2673
   14CHTO   O19 5826   4.156   5.419   3.097  0.5440 -0.2401 -0.0335
   14CHTO   H35 5827   4.135   5.395   3.009 -1.8227 -2.6494  1.1246
   14CHTO   C21 5828   4.064   5.636   3.046 -0.7549  0.1003  0.6958
   14CHTO   H49 5829   4.035   5.587   2.953  0.6774 -0.4489  0.5279
   14CHTO    N4 5830   3.942   5.645   3.127  0.2986 -0.3229 -0.0324
   14CHTO   H41 5831   3.872   5.718   3.088 -0.5319 -0.2150  1.6223
   14CHTO   H42 5832   3.950   5.651   3.234 -0.0767  0.3149 -0.0360
   14CHTO   C22 5833   4.114   5.774   3.004  0.8472 -0.0654 -0.3284
   14CHTO   H50 5834   4.164   5.820   3.089  0.3582 -1.5607  0.7755
   14CHTO   O14 5835   4.214   5.754   2.907 -0.5138  0.2728 -0.4980
   14CHTO   C23 5836   4.338   5.708   2.971 -0.1052 -0.1387  0.1650
   14CHTO   H51 5837   4.369   5.782   3.046  3.0745 -0.7873 -0.4561
   14CHTO   C34 5838   4.467   5.715   2.883  0.4323 -0.6203  0.4716
   14CHTO   O23 5839   4.450   5.831   2.794  1.4963 -0.0974  0.8300
   14CHTO   H38 5840   4.425   5.907   2.843 -0.7513  1.7432 -2.8949
   14CHTO   O16 5841   4.013   5.861   2.949  0.7147  0.4237  0.7299
   14CHTO   C24 5842   4.041   6.019   2.920 -0.2352  0.8911  0.0652
   14CHTO   H52 5843   3.967   6.080   2.972 -2.5095 -0.3986 -1.5613
   14CHTO   C26 5844   4.023   6.047   2.768 -0.6059 -0.9851 -0.6389
   14CHTO   H54 5845   4.084   5.970   2.717 -3.1905 -2.0755 -2.1754
   14CHTO   O20 5846   3.886   6.008   2.732 -0.1336  0.1272 -0.2844
   14CHTO   H36 5847   3.879   5.929   2.683 -0.4220 -1.1048  1.6540
   14CHTO   C30 5848   4.053   6.192   2.721 -0.3386  0.3032 -0.3565
   14CHTO   H58 5849   3.979   6.267   2.754 -0.2091  0.8838 -1.3710
   14CHTO    N6 5850   4.056   6.204   2.570  0.4431  0.4714 -0.3032
   14CHTO   H45 5851   4.156   6.181   2.536  0.7425 -0.9622  1.4289
   14CHTO   H46 5852   3.991   6.137   2.517  2.0581 -3.3353  2.3388
   14CHTO   C33 5853   4.189   6.232   2.787  0.3857 -0.1774  0.1305
   14CHTO   H61 5854   4.269   6.165   2.750 -0.6961 -1.2846 -0.2386
   14CHTO   O18 5855   4.176   6.207   2.928  0.5944 -0.7573  0.2053
   14CHTO   C28 5856   4.177   6.068   2.966  0.4763  0.2745 -0.0170
   14CHTO   H56 5857   4.259   6.010   2.925 -0.4919 -0.1829 -1.3335
   14CHTO   C35 5858   4.201   6.084   3.119  0.1886  0.1951  0.7764
   14CHTO   O24 5859   4.328   6.133   3.153  0.2109 -0.5428 -0.1561
   14CHTO   H39 5860   4.349   6.123   3.244  0.8261 -2.1892 -0.4480
   14CHTO    O9 5861   4.234   6.365   2.759  0.2818  0.3140  0.3084
   14CHTO   C13 5862   4.377   6.405   2.808 -0.4695  0.0223 -0.5419
   14CHTO   H26 5863   4.434   6.314   2.780 -1.2035 -0.5746 -0.1082
   14CHTO   C11 5864   4.383   6.432   2.968  0.1781 -0.6370 -0.4098
   14CHTO   H24 5865   4.356   6.339   3.021  3.1334 -0.6066  1.2300
   14CHTO    O8 5866   4.292   6.536   3.002 -0.1242  0.2898  0.5710
   14CHTO    H3 5867   4.202   6.510   3.014 -0.9544  1.7594 -2.1517
   14CHTO    C9 5868   4.530   6.458   3.004  0.5498 -0.1696  0.1623
   14CHTO   H22 5869   4.583   6.369   2.967  0.4775 -0.5515  0.9530
   14CHTO    N2 5870   4.546   6.475   3.150 -0.2891  0.8301  0.5124
   14CHTO   H10 5871   4.468   6.523   3.207 -2.0340 -1.8524  0.5081
   14CHTO   H11 5872   4.588   6.389   3.200  0.9927  2.3603  2.1124
   14CHTO    C7 5873   4.591   6.574   2.910  0.5232 -0.0883  0.5921
   14CHTO   H20 5874   4.665   6.512   2.855 -1.2853 -2.1099  0.3573
   14CHTO    O4 5875   4.500   6.633   2.818  0.0522 -0.2849 -0.2131
   14CHTO   C14 5876   4.442   6.536   2.732  0.4774 -0.8204 -0.1385
   14CHTO   H27 5877   4.521   6.498   2.663  2.1612  0.0055  1.2816
   14CHTO   C18 5878   4.334   6.612   2.644 -0.3723  0.0496 -0.0136
   14CHTO   O13 5879   4.264   6.539   2.550  0.2182  0.2518 -0.4710
   14CHTO    H7 5880   4.182   6.517   2.589 -0.3340 -1.3930 -2.5355
   14CHTO    O2 5881   4.683   6.686   2.986  0.9202  0.4832 -0.1209
   14CHTO    C1 5882   4.778   6.759   2.900 -0.1260 -0.5121 -0.1747
   14CHTO   H14 5883   4.764   6.739   2.791 -2.6055  1.2764 -0.2394
   14CHTO    C2 5884   4.928   6.719   2.938 -0.1565 -0.7302 -0.3934
   14CHTO   H15 5885   4.935   6.721   3.048  0.0450  2.5431 -0.4151
   14CHTO    O6 5886   4.959   6.587   2.890  0.7491  0.5098  0.9390
   14CHTO    H1 5887   4.936   6.589   2.800 -0.7408  3.1966  1.3231
   14CHTO    C3 5888   5.039   6.831   2.883  0.3589  0.1042 -0.1727
   14CHTO   H16 5889   5.072   6.822   2.779 -4.4120 -1.3832 -1.6868
   14CHTO    N1 5890   5.167   6.823   2.966  0.3640 -0.2590  0.2940
   14CHTO    H8 5891   5.237   6.745   2.941 -1.1952 -1.4386 -0.4688
   14CHTO    H9 5892   5.136   6.823   3.070 -1.9690  0.8195 -0.3566
   14CHTO    C4 5893   4.975   6.972   2.887  0.0595  0.0576 -0.1376
   14CHTO   H17 5894   4.984   7.009   2.989 -1.5149  0.8255 -0.2544
   14CHTO    O1 5895   4.837   6.978   2.831 -0.2801 -0.1727 -0.6222
   14CHTO    C5 5896   4.751   6.912   2.919  0.4042  0.0254  0.1238
   14CHTO   H18 5897   4.760   6.934   3.025 -1.6476 -1.4174  0.6347
   14CHTO   C16 5898   4.612   6.956   2.880  0.2467  0.8035  0.7155
   14CHTO   O11 5899   4.572   6.940   2.744  0.4151  0.1375  0.0351
   14CHTO    H5 5900   4.499   6.881   2.744 -0.0530  0.6952 -1.6887
   14CHTO    O3 5901   5.045   7.062   2.795  0.0324  0.2588  0.7571
   14CHTO    C6 5902   5.059   7.201   2.850  0.1222  0.8275 -0.5849
   14CHTO   H19 5903   5.011   7.216   2.947 -1.5298  0.8221 -1.3718
   14CHTO    C8 5904   5.214   7.218   2.880 -0.0457 -0.1057  0.0298
   14CHTO   H21 5905   5.267   7.188   2.790 -1.9395 -0.6336 -0.9369
   14CHTO    O7 5906   5.246   7.138   2.989  0.1343 -0.5015 -0.2482
   14CHTO    H2 5907   5.338   7.138   3.007  0.0784  1.2475  0.1546
   14CHTO   C12 5908   5.246   7.368   2.911 -0.6151 -0.2769  0.8939
   14CHTO   H25 5909   5.204   7.391   3.011  0.3890 -1.3614  1.5796
   14CHTO    N3 5910   5.396   7.396   2.929 -0.2216  0.4258  0.4730
   14CHTO   H12 5911   5.421   7.335   3.015 -0.2717 -1.3923 -0.7820
   14CHTO   H13 5912   5.453   7.357   2.846 -0.5541  0.7891  0.0768
   14CHTO   C15 5913   5.173   7.465   2.804  0.3009  0.2521 -0.8656
   14CHTO   H28 5914   5.233   7.460   2.713  0.9902  2.0785 -0.5303
   14CHTO   O10 5915   5.181   7.610   2.849  0.5134  0.6784  0.2289
   14CHTO    H4 5916   5.171   7.674   2.781 -2.4337 -0.6911 -0.7241
   14CHTO    O5 5917   5.036   7.435   2.794  0.1490  0.1294  0.6543
   14CHTO   C10 5918   4.994   7.301   2.756 -0.7378  0.1349 -0.5131
   14CHTO   H23 5919   5.022   7.290   2.651  0.7279  2.3832 -0.3849
   14CHTO   C17 5920   4.844   7.289   2.769  0.5430 -0.0710  0.0501
   14CHTO   O12 5921   4.789   7.331   2.646 -0.1677  0.5197  0.4097
   14CHTO    H6 5922   4.716   7.383   2.671  1.1736  2.1019  1.1418
   15CHTO  H203 5923   5.706   4.620   2.507 -1.1577 -1.4065  0.3677
   15CHTO   O82 5924   5.736   4.562   2.440  0.8371 -0.1203  0.1155
   15CHTO  C123 5925   5.624   4.528   2.354 -0.2071 -0.5182  0.2308
   15CHTO  H227 5926   5.602   4.614   2.288  1.8792  1.5601  2.1313
   15CHTO   O77 5927   5.671   4.411   2.281 -0.0840  0.2389  0.1607
   15CHTO  C118 5928   5.587   4.354   2.183  0.1789  0.0533 -0.5502
   15CHTO  H222 5929   5.544   4.426   2.112  0.3684 -0.7097 -1.4536
   15CHTO  C125 5930   5.677   4.254   2.099 -0.4224 -0.0322  0.1017
   15CHTO   O84 5931   5.725   4.147   2.181 -0.1287 -0.1896 -0.2699
   15CHTO  H205 5932   5.763   4.081   2.126 -0.4570  1.6205 -2.7174
   15CHTO  C114 5933   5.472   4.284   2.259 -0.2205 -0.4769 -0.5817
   15CHTO  H218 5934   5.517   4.205   2.319 -3.8223  0.0568  2.9987
   15CHTO  C116 5935   5.407   4.389   2.361  0.6012 -0.2374  0.0956
   15CHTO  H220 5936   5.339   4.452   2.300  1.6937 -0.5900 -1.5290
   15CHTO   O79 5937   5.328   4.321   2.457  0.4571  0.5636 -0.5286
   15CHTO  H201 5938   5.380   4.305   2.533 -1.0697 -2.2266  0.0175
   15CHTO  C120 5939   5.500   4.481   2.439 -0.0819  0.2118 -0.0217
   15CHTO  H224 5940   5.536   4.414   2.520  1.3323  1.0486  0.0621
   15CHTO   N21 5941   5.436   4.598   2.505 -0.0758 -0.0795  0.2423
   15CHTO  H211 5942   5.344   4.629   2.457 -0.3597 -0.7082  0.3811
   15CHTO  H212 5943   5.507   4.678   2.519 -0.5512  0.5262 -0.7422
   15CHTO   O75 5944   5.381   4.224   2.176  0.1541 -0.2262  0.5819
   15CHTO  C112 5945   5.339   4.067   2.197  0.2036 -0.3586  0.0714
   15CHTO  H216 5946   5.377   4.045   2.298  1.1311  1.0405  0.0552
   15CHTO   O73 5947   5.415   3.992   2.097  0.1704  0.5829 -0.2378
   15CHTO  C113 5948   5.398   3.849   2.092 -0.2963  1.0921  0.2198
   15CHTO  H217 5949   5.412   3.815   2.197  2.3199  2.1073  0.2236
   15CHTO  C124 5950   5.522   3.789   2.018 -0.3897  0.4507  0.0938
   15CHTO   O83 5951   5.524   3.844   1.879 -0.1046 -0.4985  0.6668
   15CHTO  H204 5952   5.459   3.819   1.817  1.2130 -0.9016 -0.5908
   15CHTO  C109 5953   5.251   3.823   2.043  0.1175 -0.4072 -0.3648
   15CHTO  H213 5954   5.245   3.866   1.942  2.3461  0.4435 -0.1657
   15CHTO  C110 5955   5.155   3.898   2.148  0.0155  0.6832 -0.6994
   15CHTO  H214 5956   5.168   3.843   2.241 -0.2413  0.6546 -0.6816
   15CHTO   O78 5957   5.020   3.877   2.095 -0.6098 -0.2084  0.0531
   15CHTO  H200 5958   4.985   3.791   2.111 -1.0123 -0.4985 -2.1883
   15CHTO  C111 5959   5.184   4.048   2.174 -0.0503 -0.3475 -0.2957
   15CHTO  H215 5960   5.153   4.103   2.084 -1.5853  1.7015  1.4273
   15CHTO   N19 5961   5.101   4.108   2.282 -0.6865 -0.6386 -0.0037
   15CHTO  H207 5962   5.122   4.077   2.384  0.0857 -2.0117 -0.5602
   15CHTO  H208 5963   4.996   4.095   2.259 -0.6364  0.7473 -1.0617
   15CHTO   O74 5964   5.213   3.677   2.042 -0.1313 -0.1612 -0.3600
   15CHTO  C115 5965   5.255   3.600   1.915  0.2214  0.4618  0.2468
   15CHTO  H219 5966   5.278   3.667   1.832  2.0443 -0.3264  0.0916
   15CHTO   O76 5967   5.391   3.517   1.933  0.0262  0.0068  0.3257
   15CHTO  C122 5968   5.370   3.403   2.015 -0.0306 -0.3409 -0.0247
   15CHTO  H226 5969   5.347   3.433   2.117  1.5545  1.0597 -0.0558
   15CHTO  C126 5970   5.507   3.318   2.025 -0.1010  0.0663  0.0835
   15CHTO   O85 5971   5.522   3.226   2.136 -0.5754  0.2841  0.1111
   15CHTO  H206 5972   5.526   3.142   2.094 -1.7467  0.0265  0.4813
   15CHTO  C121 5973   5.257   3.308   1.959 -0.0336  0.0050 -0.0463
   15CHTO  H225 5974   5.307   3.214   1.928 -1.5259 -1.0136  0.5765
   15CHTO   O81 5975   5.175   3.280   2.072  0.9273  0.6479  0.4338
   15CHTO  H202 5976   5.225   3.230   2.134  1.3972  0.6971  0.0941
   15CHTO  C119 5977   5.177   3.360   1.849  0.9040 -0.0940 -0.2089
   15CHTO  H223 5978   5.255   3.359   1.773  0.5485  1.2461 -0.5987
   15CHTO  C117 5979   5.124   3.509   1.875  0.5557 -0.3629  0.4144
   15CHTO  H221 5980   5.053   3.516   1.957 -4.3892 -1.2883 -3.5339
   15CHTO   N20 5981   5.051   3.566   1.757 -0.1499  0.1251  0.2764
   15CHTO  H209 5982   4.951   3.529   1.743 -0.6776  1.6681 -0.1649
   15CHTO  H210 5983   5.053   3.674   1.764  2.1835  0.2381 -1.4332
   15CHTO   O80 5984   5.084   3.257   1.794  0.5632  0.1216  0.0653
   15CHTO  C103 5985   5.153   3.110   1.742  0.4025  0.0531 -0.8289
   15CHTO  H190 5986   5.260   3.099   1.760  0.0795  1.8346  2.5313
   15CHTO  C101 5987   5.076   2.975   1.791  0.0326  0.4964  0.1784
   15CHTO  H188 5988   4.968   2.987   1.782  0.2059  3.0702  1.0466
   15CHTO   O68 5989   5.109   2.955   1.931  0.1200  0.0152 -0.1833
   15CHTO  H168 5990   5.076   3.030   1.977 -0.1659  1.9138 -3.3551
   15CHTO   C99 5991   5.110   2.848   1.707  0.1139  0.7754  0.9286
   15CHTO  H186 5992   5.219   2.833   1.720  0.3815  1.6215 -0.2760
   15CHTO   N17 5993   5.029   2.723   1.742  0.6926  0.4602  0.4019
   15CHTO  H174 5994   4.934   2.729   1.690  0.0716 -0.1072  1.4628
   15CHTO  H175 5995   5.093   2.642   1.712 -2.4322 -1.3003 -1.8083
   15CHTO   C97 5996   5.094   2.882   1.558 -0.1770  0.4269  0.1543
   15CHTO  H184 5997   4.987   2.893   1.533  0.0946  0.6552 -0.9209
   15CHTO   O64 5998   5.164   2.997   1.519  0.0977  0.2261 -0.2157
   15CHTO  C104 5999   5.131   3.121   1.582 -0.0641 -0.1094  0.0827
   15CHTO  H191 6000   5.026   3.131   1.555 -0.6612 -3.4184  0.9157
   15CHTO  C108 6001   5.199   3.245   1.524  0.4931 -0.4780 -0.8479
   15CHTO   O71 6002   5.339   3.219   1.527  1.0677  0.3845  0.0119
   15CHTO  H171 6003   5.367   3.233   1.616  0.8862  0.6124  0.0350
   15CHTO   O62 6004   5.130   2.768   1.477  0.2206  0.2530  0.4426
   15CHTO   C91 6005   5.266   2.753   1.420  0.8721  0.7493 -0.3820
   15CHTO  H178 6006   5.292   2.854   1.387  1.0073  0.3430 -1.5707
   15CHTO   C92 6007   5.248   2.690   1.286 -0.4509 -0.5520  0.3170
   15CHTO  H179 6008   5.168   2.745   1.233  0.6937  2.2118  1.3878
   15CHTO   O66 6009   5.365   2.719   1.207  0.8114 -0.2961  0.1381
   15CHTO  H166 6010   5.339   2.728   1.118  2.6911 -0.9331 -0.5029
   15CHTO   C93 6011   5.225   2.530   1.291 -0.1278 -0.0269 -0.0472
   15CHTO  H180 6012   5.259   2.490   1.195 -0.1512 -1.5170  0.5484
   15CHTO   N16 6013   5.085   2.494   1.301  0.6664  0.0870  0.0703
   15CHTO  H172 6014   5.082   2.387   1.286 -0.0008  0.3985 -2.2655
   15CHTO  H173 6015   5.062   2.510   1.405  0.2843 -1.6816  0.2640
   15CHTO   C94 6016   5.312   2.463   1.406  0.3612  0.3031  0.3866
   15CHTO  H181 6017   5.250   2.426   1.487 -0.8365  0.2146 -0.5534
   15CHTO   O61 6018   5.416   2.552   1.464  0.6709 -0.1292  0.4295
   15CHTO   C95 6019   5.368   2.678   1.514 -0.0180  0.1716 -0.0486
   15CHTO  H182 6020   5.316   2.659   1.608  0.0402 -1.6693 -0.3644
   15CHTO  C106 6021   5.491   2.769   1.551 -0.5080  0.0618  0.2160
   15CHTO   O69 6022   5.452   2.903   1.592 -0.3104 -0.0870  0.3077
   15CHTO  H169 6023   5.527   2.954   1.615 -0.9247  1.3494 -0.8093
   15CHTO   O63 6024   5.393   2.332   1.335  0.4975 -0.2138  0.2547
   15CHTO   C96 6025   5.465   2.234   1.437  0.0546 -0.6667  0.2024
   15CHTO  H183 6026   5.440   2.267   1.537 -0.3412  0.9134 -0.3988
   15CHTO   C98 6027   5.618   2.234   1.420 -0.1964 -0.8837  0.8609
   15CHTO  H185 6028   5.639   2.227   1.312 -3.5083  0.1039  0.1094
   15CHTO   O67 6029   5.656   2.367   1.468  0.4749  0.3029  0.2608
   15CHTO  H167 6030   5.746   2.385   1.449  0.6392  0.3592  1.0814
   15CHTO  C102 6031   5.692   2.118   1.500  0.0767 -0.4308 -0.1000
   15CHTO  H189 6032   5.681   2.149   1.605  0.6747  0.6263 -0.3412
   15CHTO   N18 6033   5.841   2.102   1.476 -0.5009  0.2186 -0.6225
   15CHTO  H176 6034   5.879   2.008   1.513 -1.2513  0.5294  1.0029
   15CHTO  H177 6035   5.847   2.078   1.371  2.4994  0.9919 -0.6779
   15CHTO  C105 6036   5.614   1.986   1.472  0.5861 -0.1677  0.5025
   15CHTO  H192 6037   5.620   1.969   1.365 -0.4492  1.8690  0.0898
   15CHTO   O65 6038   5.471   2.002   1.501 -1.0923  0.3835 -0.3475
   15CHTO  C100 6039   5.399   2.093   1.416  0.9172 -0.3139  0.1409
   15CHTO  H187 6040   5.411   2.056   1.313  0.3105 -0.6115  0.1691
   15CHTO  C107 6041   5.253   2.093   1.461 -0.2857  0.1219  0.2882
   15CHTO   O70 6042   5.168   2.183   1.393 -0.2654  0.1739 -0.3305
   15CHTO  H170 6043   5.086   2.149   1.421 -0.1130 -2.1872 -2.5662
   15CHTO   O57 6044   5.687   1.855   1.568  0.2171  0.6534 -0.6918
   15CHTO   C85 6045   5.613   1.794   1.674 -0.1766 -0.2515  0.3390
   15CHTO  H157 6046   5.533   1.863   1.709  0.2891  0.6848 -0.4295
   15CHTO   C83 6047   5.716   1.777   1.792  0.3407  0.2476 -0.9028
   15CHTO  H155 6048   5.735   1.878   1.829 -0.6678  0.6071 -1.3511
   15CHTO   O56 6049   5.838   1.715   1.750  0.1365 -0.7947  0.4937
   15CHTO  H135 6050   5.850   1.703   1.658 -0.5019  0.1517  0.2814
   15CHTO   C81 6051   5.638   1.696   1.899  0.8844  0.3404  0.6047
   15CHTO  H153 6052   5.545   1.753   1.909  1.5596  2.0525 -2.2707
   15CHTO   N14 6053   5.698   1.694   2.036  0.3183 -0.0870 -0.0518
   15CHTO  H141 6054   5.731   1.788   2.073  1.5529  0.2287 -1.8829
   15CHTO  H142 6055   5.623   1.659   2.104  0.2003  1.0712  0.4298
   15CHTO   C79 6056   5.608   1.554   1.851  0.3451  0.0777 -0.4354
   15CHTO  H151 6057   5.546   1.509   1.929  1.0717 -0.5218 -0.2067
   15CHTO   O52 6058   5.510   1.569   1.742 -0.0503 -0.2113  0.0840
   15CHTO   C86 6059   5.556   1.656   1.632  0.2542 -0.3890  0.0117
   15CHTO  H158 6060   5.642   1.604   1.585  0.7337 -1.0271  1.5642
   15CHTO   C90 6061   5.448   1.664   1.522  0.3860 -0.2622 -0.9070
   15CHTO   O60 6062   5.328   1.717   1.566  0.0824 -0.1734  0.2312
   15CHTO  H138 6063   5.327   1.811   1.560 -0.3751 -0.1732  0.3144
   15CHTO   O50 6064   5.717   1.469   1.817 -0.0949  0.1812 -0.4292
   15CHTO   C73 6065   5.739   1.330   1.794 -0.3881 -0.3191 -0.5539
   15CHTO  H145 6066   5.644   1.282   1.765 -1.2507  0.4968  0.8824
   15CHTO   C74 6067   5.781   1.258   1.928  0.0146 -0.7425 -0.2550
   15CHTO  H146 6068   5.702   1.266   2.005  1.1946  3.2662  0.6371
   15CHTO   O54 6069   5.790   1.114   1.905 -0.3003  0.0852  0.4764
   15CHTO  H133 6070   5.707   1.071   1.907 -0.3080  0.1009  0.4735
   15CHTO   C75 6071   5.917   1.324   1.975 -0.1083  0.1380 -0.3788
   15CHTO  H147 6072   5.906   1.433   1.989 -0.5590 -0.1981  2.2488
   15CHTO   N13 6073   5.970   1.267   2.093 -0.0119  0.1494 -0.5971
   15CHTO  H139 6074   5.993   1.163   2.071 -0.4472 -0.2160  0.6369
   15CHTO  H140 6075   5.893   1.271   2.168  2.1517  0.9543  1.6372
   15CHTO   C76 6076   6.024   1.310   1.859 -0.5707  0.6749 -0.2078
   15CHTO  H148 6077   6.042   1.203   1.846  0.7540  0.7575  0.9851
   15CHTO   O49 6078   5.974   1.362   1.727 -0.1180 -0.0459 -0.3513
   15CHTO   C77 6079   5.848   1.304   1.690 -0.2405  1.0014  0.0407
   15CHTO  H149 6080   5.864   1.196   1.685  0.4534  1.0192  1.5578
   15CHTO   C88 6081   5.817   1.357   1.548 -0.0790  0.3796  0.0780
   15CHTO   O58 6082   5.730   1.272   1.469  0.6024  0.4509 -0.0761
   15CHTO  H136 6083   5.777   1.219   1.407 -0.8747 -0.4092 -0.4644
   15CHTO   O51 6084   6.166   1.396   1.881 -0.1332 -0.4407 -0.2135
   15CHTO   C78 6085   6.269   1.394   1.749 -0.4606 -0.4865 -0.2282
   15CHTO  H150 6086   6.221   1.417   1.652 -0.3360 -0.0763 -0.1959
   15CHTO   C80 6087   6.335   1.262   1.737  0.1800 -0.0191 -0.1154
   15CHTO  H152 6088   6.348   1.225   1.841 -0.0716  2.3516  0.7803
   15CHTO   O55 6089   6.249   1.177   1.666 -0.1092 -0.4038 -0.1236
   15CHTO  H134 6090   6.193   1.130   1.724 -0.3287  1.1527  0.9812
   15CHTO   C84 6091   6.468   1.264   1.660 -0.8317 -0.4311  0.3968
   15CHTO  H156 6092   6.448   1.277   1.554 -0.9807 -0.2049  0.4519
   15CHTO   N15 6093   6.544   1.136   1.667 -0.1061  0.2085  0.1656
   15CHTO  H143 6094   6.549   1.092   1.764 -0.6910 -1.5609 -0.5733
   15CHTO  H144 6095   6.505   1.070   1.592  2.0793  2.3755 -3.0056
   15CHTO   C87 6096   6.558   1.392   1.697 -0.7048  0.2094 -0.3071
   15CHTO  H159 6097   6.601   1.382   1.796 -1.6981  0.6338  0.1666
   15CHTO   O53 6098   6.477   1.508   1.684  1.0076 -0.6213  0.1045
   15CHTO   C82 6099   6.366   1.508   1.771 -0.1190  0.8842 -0.6102
   15CHTO  H154 6100   6.393   1.493   1.876  2.1572 -1.9138 -1.5315
   15CHTO   C89 6101   6.288   1.643   1.764 -0.2755  0.5590  0.0394
   15CHTO   O59 6102   6.370   1.758   1.795  0.0756 -0.4683  0.7028
   15CHTO  H137 6103   6.431   1.763   1.724  0.9329  0.3928  1.4714
   15CHTO   O45 6104   6.674   1.413   1.600  0.4476  0.0587  0.6142
   15CHTO   C67 6105   6.770   1.515   1.637  0.0907  0.1450  0.6489
   15CHTO  H124 6106   6.717   1.599   1.683  0.8601  1.5331 -0.9316
   15CHTO   C65 6107   6.877   1.459   1.733 -0.1540 -0.1293 -0.2416
   15CHTO  H122 6108   6.893   1.354   1.710 -0.8580 -0.1669 -0.5579
   15CHTO   O44 6109   6.822   1.471   1.865  1.6574  0.4755 -0.2395
   15CHTO  H102 6110   6.799   1.561   1.882 -0.1688 -0.1127  0.5097
   15CHTO   C63 6111   7.020   1.522   1.709 -0.0750 -0.2333 -0.0508
   15CHTO  H120 6112   7.060   1.478   1.617  1.5229  1.3435 -0.1245
   15CHTO   N11 6113   7.128   1.477   1.803 -0.7707 -0.0175  0.0256
   15CHTO  H108 6114   7.102   1.498   1.905  2.1444  1.8848  0.4335
   15CHTO  H109 6115   7.207   1.547   1.786  1.0298 -1.8675  0.6158
   15CHTO   C61 6116   7.010   1.674   1.669 -0.3713 -0.5980  0.1543
   15CHTO  H118 6117   7.115   1.702   1.648 -0.4554 -0.2849  0.1420
   15CHTO   O40 6118   6.933   1.690   1.547 -0.5102 -0.2079 -0.1081
   15CHTO   C68 6119   6.838   1.580   1.508 -0.2510 -0.7213  0.5461
   15CHTO  H125 6120   6.903   1.513   1.447  0.3378  0.8326 -0.5605
   15CHTO   C72 6121   6.729   1.637   1.415  0.0472  0.0302  0.9151
   15CHTO   O48 6122   6.657   1.747   1.469  0.4842 -0.5976  0.1062
   15CHTO  H105 6123   6.610   1.790   1.400 -1.2941  1.0496  2.2579
   15CHTO   O38 6124   6.961   1.752   1.783  0.0535 -0.8219  0.0903
   15CHTO   C55 6125   6.893   1.878   1.764  0.2454 -0.4215  0.4186
   15CHTO  H112 6126   6.821   1.865   1.682  2.0654 -3.4206 -0.7802
   15CHTO   C56 6127   6.994   1.995   1.728  0.7465  0.2720 -0.7623
   15CHTO  H113 6128   7.073   1.986   1.804 -1.3558 -1.3786  1.2807
   15CHTO   O42 6129   7.053   1.958   1.601  0.9227  0.8361  0.1128
   15CHTO  H100 6130   7.093   1.874   1.608  0.1395  0.5798  1.9197
   15CHTO   C57 6131   6.915   2.138   1.719 -0.0740 -0.5924  0.5166
   15CHTO  H114 6132   6.846   2.134   1.634  0.4366  0.8462  0.0272
   15CHTO   N10 6133   7.001   2.258   1.687  0.2471  0.0685 -0.2165
   15CHTO  H106 6134   7.094   2.244   1.741 -0.0774  0.1011  0.3634
   15CHTO  H107 6135   7.025   2.258   1.582  0.4858 -0.3716 -0.1646
   15CHTO   C58 6136   6.840   2.157   1.850 -0.0995 -0.7368 -0.0437
   15CHTO  H115 6137   6.916   2.172   1.929  0.8326  0.1457 -1.0818
   15CHTO   O37 6138   6.754   2.046   1.884 -0.1181  0.8538 -0.0764
   15CHTO   C59 6139   6.811   1.919   1.896 -0.3697  0.5162  0.0593
   15CHTO  H116 6140   6.869   1.921   1.988 -1.5983  0.7648  0.8531
   15CHTO   C70 6141   6.700   1.816   1.920 -0.4554 -0.0650 -0.3772
   15CHTO   O46 6142   6.646   1.816   2.054 -0.3454  0.2305  0.0090
   15CHTO  H103 6143   6.711   1.801   2.120  0.1340 -3.7428 -1.2464
   15CHTO   O39 6144   6.735   2.296   1.842  0.2933 -0.2618 -0.6501
   15CHTO   C60 6145   6.650   2.309   1.732 -0.9925  0.9449 -0.2035
   15CHTO  H117 6146   6.706   2.325   1.640  0.7138 -0.2030  0.6277
   15CHTO   C62 6147   6.561   2.179   1.703 -0.0744  0.1276  0.3525
   15CHTO  H119 6148   6.635   2.111   1.656 -0.1065 -0.5920  1.3310
   15CHTO   O43 6149   6.507   2.110   1.821 -0.0883 -0.4173  0.5219
   15CHTO  H101 6150   6.565   2.041   1.844  0.5939  0.1211  0.4302
   15CHTO   C66 6151   6.450   2.221   1.593 -0.0872  0.0315 -0.5345
   15CHTO  H123 6152   6.504   2.264   1.508  1.5131 -2.2083 -0.6913
   15CHTO   N12 6153   6.392   2.095   1.538  0.3626  0.0531 -0.0812
   15CHTO  H110 6154   6.318   2.120   1.463 -1.3206 -0.7248  1.2840
   15CHTO  H111 6155   6.473   2.035   1.500  1.9806  2.6429 -0.8813
   15CHTO   C69 6156   6.348   2.321   1.649  0.0546 -0.3669 -0.9157
   15CHTO  H126 6157   6.289   2.265   1.724  0.4322 -2.8217 -2.4071
   15CHTO   O41 6158   6.415   2.461   1.694  0.1480  0.3162  0.0360
   15CHTO   C64 6159   6.564   2.436   1.762  1.0984 -0.0990 -0.3133
   15CHTO  H121 6160   6.554   2.440   1.872 -1.2684 -0.4097 -0.4820
   15CHTO   C71 6161   6.651   2.562   1.718 -0.1352  0.3164 -0.0394
   15CHTO   O47 6162   6.589   2.681   1.769  0.3277 -0.5029  0.0604
   15CHTO  H104 6163   6.532   2.709   1.701  0.7062 -0.4645 -0.2405
   15CHTO   O34 6164   6.229   2.353   1.523 -0.0484 -0.1709  0.4094
   15CHTO   C49 6165   6.198   2.403   1.399 -0.2721  0.3826 -0.7090
   15CHTO   H91 6166   6.223   2.327   1.325 -0.8273 -2.3823  1.8399
   15CHTO   C47 6167   6.270   2.535   1.380  0.9351 -0.0443  0.2509
   15CHTO   H89 6168   6.240   2.574   1.280  1.8558 -1.9212 -0.7734
   15CHTO   O33 6169   6.412   2.518   1.363  0.1074  0.0166 -0.0909
   15CHTO   H70 6170   6.434   2.488   1.277  0.7154 -0.6433  0.2936
   15CHTO   C45 6171   6.220   2.645   1.478  0.0328  0.2068  0.2575
   15CHTO   H87 6172   6.237   2.606   1.580 -1.5529 -1.3690 -0.0667
   15CHTO    N8 6173   6.297   2.772   1.468 -0.2388 -0.0827 -0.7905
   15CHTO   H75 6174   6.256   2.833   1.388 -1.4902  0.4877  0.2745
   15CHTO   H76 6175   6.404   2.775   1.478 -0.4441  1.1301  1.2807
   15CHTO   C43 6176   6.066   2.663   1.454  0.4694 -0.2054  0.2504
   15CHTO   H85 6177   6.027   2.729   1.532  0.4596  0.1042 -0.0145
   15CHTO   O29 6178   5.993   2.536   1.450  0.5267  0.7906 -0.0753
   15CHTO   C50 6179   6.050   2.424   1.379  0.3146 -0.0077  0.4160
   15CHTO   H92 6180   5.995   2.341   1.425  1.0636  0.1106  1.5374
   15CHTO   C54 6181   6.017   2.433   1.224  0.5398  0.2057 -0.2233
   15CHTO   O36 6182   5.881   2.468   1.204 -0.3359  0.3410  0.0857
   15CHTO   H72 6183   5.841   2.422   1.132  0.2398 -2.0962  1.2794
   15CHTO   O27 6184   6.041   2.732   1.329 -0.0976  0.3782  0.0771
   15CHTO   C37 6185   5.967   2.801   1.231 -0.0852  0.1343  0.4105
   15CHTO   H79 6186   5.917   2.730   1.163 -0.4470  0.1900  0.6185
   15CHTO   C38 6187   5.854   2.886   1.299 -0.7345  0.1054 -0.2196
   15CHTO   H80 6188   5.896   2.961   1.369 -0.6124 -0.2512  0.0956
   15CHTO   O31 6189   5.778   2.791   1.372  0.0276 -0.3556 -0.0996
   15CHTO   H68 6190   5.723   2.826   1.438 -0.1557 -0.6323 -0.1048
   15CHTO   C39 6191   5.771   2.950   1.178 -0.0323  0.5126  0.0019
   15CHTO   H81 6192   5.737   2.862   1.123 -0.0792 -0.2954  1.3089
   15CHTO    N7 6193   5.642   3.018   1.206 -0.6158  0.2702 -0.0796
   15CHTO   H73 6194   5.588   3.040   1.115  0.1569  0.9992 -0.3712
   15CHTO   H74 6195   5.651   3.106   1.268  2.0120 -1.8254  2.6844
   15CHTO   C40 6196   5.861   3.039   1.090 -0.2811 -0.0092 -1.0181
   15CHTO   H82 6197   5.897   3.125   1.147 -0.6326  0.8867 -2.1262
   15CHTO   O26 6198   5.975   2.963   1.040 -0.5835  0.4572  0.4909
   15CHTO   C41 6199   6.061   2.894   1.142  0.2960 -0.3326  0.9173
   15CHTO   H83 6200   6.113   2.969   1.202  0.5549 -0.5379  0.9529
   15CHTO   C52 6201   6.177   2.810   1.073 -0.1025 -0.4580  0.6900
   15CHTO   O35 6202   6.130   2.716   0.965  0.7646  0.3531 -0.3781
   15CHTO   H71 6203   6.127   2.762   0.884 -0.2741 -1.0521 -1.1565
   15CHTO   O28 6204   5.805   3.077   0.959  0.2634  0.5429  0.0236
   15CHTO   C42 6205   5.858   3.202   0.885 -0.2528  0.4503  0.1531
   15CHTO   H84 6206   5.850   3.164   0.783 -0.5131  0.2757  0.2377
   15CHTO   C44 6207   6.012   3.236   0.901 -0.6294 -0.2331  0.1603
   15CHTO   H86 6208   6.028   3.257   1.007  1.1628 -2.1116  0.3023
   15CHTO   O32 6209   6.085   3.117   0.858  0.6282 -0.0924 -0.0210
   15CHTO   H69 6210   6.128   3.084   0.935 -0.4639 -4.2747 -1.0583
   15CHTO   C48 6211   6.049   3.362   0.813  0.4493 -0.7978  0.6611
   15CHTO   H90 6212   6.038   3.337   0.707  2.4699 -0.9333  0.4536
   15CHTO    N9 6213   6.192   3.396   0.832 -0.5679 -0.0047  0.3966
   15CHTO   H77 6214   6.255   3.309   0.816  0.0134 -0.1111  3.0978
   15CHTO   H78 6215   6.227   3.479   0.773 -0.8295 -0.6581 -0.6951
   15CHTO   C51 6216   5.948   3.475   0.839  0.2213 -0.3196  0.4355
   15CHTO   H93 6217   5.956   3.503   0.944 -2.5304  0.2352  0.5280
   15CHTO   O30 6218   5.820   3.425   0.807 -0.6830  0.0471 -0.0181
   15CHTO   C46 6219   5.778   3.328   0.894  1.4743 -0.0750 -0.2123
   15CHTO   H88 6220   5.782   3.365   0.997  0.4754  0.5220 -0.3733
   15CHTO   C53 6221   5.629   3.306   0.854  0.8951 -0.3543  0.3951
   15CHTO   O72 6222   5.561   3.253   0.972  0.1582 -0.3557  0.4395
   15CHTO  H199 6223   5.477   3.211   0.966  0.4364 -0.7398 -0.8234
   15CHTO   O22 6224   5.973   3.594   0.758 -0.1806 -0.1321 -0.3715
   15CHTO   C31 6225   5.907   3.725   0.795  0.1047  0.1489  0.2018
   15CHTO   H59 6226   5.924   3.791   0.707  0.6469  0.6563  0.6800
   15CHTO   C29 6227   5.750   3.717   0.821 -0.2291  0.4345 -0.2578
   15CHTO   H57 6228   5.725   3.645   0.900 -1.9844 -0.8342 -1.9167
   15CHTO   O21 6229   5.681   3.666   0.704  0.6186 -0.4151  0.2166
   15CHTO   H37 6230   5.726   3.602   0.653  0.8061  0.6987 -1.0453
   15CHTO   C27 6231   5.700   3.863   0.855 -0.1802 -0.1504  0.2578
   15CHTO   H55 6232   5.724   3.918   0.763  1.1402 -1.5110 -0.2398
   15CHTO    N5 6233   5.557   3.865   0.881 -0.2416  0.2328 -0.1866
   15CHTO   H43 6234   5.548   3.930   0.967  0.3602 -1.7937  1.4496
   15CHTO   H44 6235   5.512   3.896   0.788 -0.1020 -0.3664 -0.4557
   15CHTO   C25 6236   5.786   3.921   0.979  0.5031  0.1527 -0.1153
   15CHTO   H53 6237   5.781   3.843   1.056  2.2104  0.9550  0.8336
   15CHTO   O17 6238   5.927   3.929   0.939 -0.3332 -0.1900 -0.0905
   15CHTO   C32 6239   5.981   3.796   0.911 -0.5838  0.9390  0.3125
   15CHTO   H60 6240   5.967   3.738   1.003 -3.0743  0.7771 -0.1276
   15CHTO   C36 6241   6.134   3.823   0.883 -0.7095  0.0630 -0.5300
   15CHTO   O25 6242   6.211   3.881   0.987  0.2401  0.1297  0.4962
   15CHTO   H40 6243   6.198   3.974   0.982  0.3750  0.1287  0.1180
   15CHTO   O15 6244   5.738   4.056   1.023 -0.1879 -0.1589 -0.4986
   15CHTO   C19 6245   5.723   4.126   1.149  0.1461 -0.1290  0.2803
   15CHTO   H47 6246   5.810   4.105   1.213  0.1538 -1.6145 -0.1932
   15CHTO   C20 6247   5.724   4.281   1.115  0.1942  0.3769 -0.0022
   15CHTO   H48 6248   5.643   4.313   1.048  0.9476  1.8773 -0.2168
   15CHTO   O19 6249   5.838   4.310   1.037  0.1950 -0.1478  0.1956
   15CHTO   H35 6250   5.905   4.347   1.091  1.3700 -1.7648 -0.1296
   15CHTO   C21 6251   5.717   4.370   1.241  0.1410 -0.3110 -0.0133
   15CHTO   H49 6252   5.818   4.383   1.280 -0.4568  1.6767  0.9051
   15CHTO    N4 6253   5.676   4.509   1.207 -0.2689  0.1552 -0.7459
   15CHTO   H41 6254   5.645   4.562   1.296 -1.1679  0.3066 -1.1426
   15CHTO   H42 6255   5.753   4.567   1.158 -0.7940  1.6356  0.1198
   15CHTO   C22 6256   5.626   4.306   1.356 -0.3145  0.0117  0.2399
   15CHTO   H50 6257   5.522   4.338   1.357 -0.7682 -1.3904 -0.5093
   15CHTO   O14 6258   5.626   4.160   1.362  0.1283 -0.1695 -0.3060
   15CHTO   C23 6259   5.603   4.094   1.240  0.5091 -0.3822  0.6446
   15CHTO   H51 6260   5.511   4.137   1.198  1.7175  0.4181 -1.2783
   15CHTO   C34 6261   5.596   3.945   1.264 -0.4117 -0.3401 -0.5018
   15CHTO   O23 6262   5.719   3.880   1.312 -0.0344  0.8903 -0.0001
   15CHTO   H38 6263   5.710   3.787   1.310  0.2273  0.8508  0.6407
   15CHTO   O16 6264   5.672   4.355   1.482 -0.1151 -0.8984 -0.0210
   15CHTO   C24 6265   5.813   4.284   1.548 -0.1809 -0.2324 -0.4876
   15CHTO   H52 6266   5.869   4.232   1.471 -1.0692  1.2939 -2.2038
   15CHTO   C26 6267   5.772   4.179   1.654 -0.0298 -0.0201 -0.4614
   15CHTO   H54 6268   5.705   4.232   1.725  1.1708  0.7970  0.0771
   15CHTO   O20 6269   5.691   4.075   1.591 -0.0178  0.3595  0.1646
   15CHTO   H36 6270   5.624   4.120   1.544  0.9264 -1.0094 -2.6129
   15CHTO   C30 6271   5.891   4.118   1.733  0.2274 -0.2527 -0.4808
   15CHTO   H58 6272   5.959   4.052   1.677  0.9035  0.4422 -0.4828
   15CHTO    N6 6273   5.845   4.036   1.846  0.2547  0.2040  0.1493
   15CHTO   H45 6274   5.802   4.094   1.926 -1.5086 -0.6839 -0.1237
   15CHTO   H46 6275   5.924   3.970   1.880  0.8922  0.4939 -0.7558
   15CHTO   C33 6276   5.975   4.233   1.789  0.6542  0.2450  1.0353
   15CHTO   H61 6277   5.912   4.289   1.859 -1.5502 -3.6488  2.3063
   15CHTO   O18 6278   6.008   4.320   1.676 -0.1127  0.3330  0.0473
   15CHTO   C28 6279   5.908   4.386   1.612  0.2429  0.2522 -0.0268
   15CHTO   H56 6280   5.850   4.453   1.676 -0.1161 -0.9951  0.9648
   15CHTO   C35 6281   5.967   4.464   1.493 -0.1068 -0.1488 -0.1039
   15CHTO   O24 6282   6.070   4.562   1.518  0.2490  0.0227 -0.3467
   15CHTO   H39 6283   6.142   4.531   1.571  0.7896  0.7587 -0.6402
   15CHTO    O9 6284   6.087   4.196   1.861 -0.3365 -0.2340  0.5390
   15CHTO   C13 6285   6.138   4.295   1.996 -0.5630  0.9123 -0.2524
   15CHTO   H26 6286   6.053   4.283   2.067  0.5893  1.6728  1.2690
   15CHTO   C11 6287   6.161   4.446   1.949  0.5386  0.0708 -0.6841
   15CHTO   H24 6288   6.058   4.475   1.922 -0.0074 -0.0242  1.1918
   15CHTO    O8 6289   6.239   4.445   1.832  0.4621 -0.4307  0.3980
   15CHTO    H3 6290   6.199   4.462   1.749  0.0899  1.3708  0.9313
   15CHTO    C9 6291   6.223   4.525   2.070  0.1876 -0.2147 -0.4577
   15CHTO   H22 6292   6.158   4.515   2.158  1.0125  1.5836  0.3970
   15CHTO    N2 6293   6.230   4.669   2.048  0.1097  0.0044  0.7921
   15CHTO   H10 6294   6.294   4.711   2.124  0.5024 -1.7940  1.4760
   15CHTO   H11 6295   6.268   4.695   1.950 -1.7340 -0.9276 -0.1913
   15CHTO    C7 6296   6.357   4.456   2.111 -0.2023 -0.2587 -0.7345
   15CHTO   H20 6297   6.373   4.508   2.208  0.8655 -1.9231 -0.0093
   15CHTO    O4 6298   6.343   4.317   2.146 -0.1850 -0.0246  0.0442
   15CHTO   C14 6299   6.266   4.231   2.056 -0.4111 -0.0246 -0.3315
   15CHTO   H27 6300   6.236   4.147   2.121  2.2962 -0.0220  0.9621
   15CHTO   C18 6301   6.354   4.171   1.942  0.0546 -0.8525 -0.8367
   15CHTO   O13 6302   6.448   4.079   2.004  0.0555  0.3707  0.3675
   15CHTO    H7 6303   6.479   4.028   1.932 -2.3675 -1.3052  0.4507
   15CHTO    O2 6304   6.478   4.480   2.026  0.0949 -0.0422  0.8371
   15CHTO    C1 6305   6.607   4.465   2.089  0.0469  0.2633 -0.2492
   15CHTO   H14 6306   6.592   4.383   2.163 -0.6775 -1.6257 -2.4314
   15CHTO    C2 6307   6.659   4.593   2.169 -0.1550  0.0110  0.2808
   15CHTO   H15 6308   6.642   4.677   2.101 -1.2027 -0.1249  0.3725
   15CHTO    O6 6309   6.585   4.610   2.285 -0.1709  0.2689  0.2158
   15CHTO    H1 6310   6.609   4.691   2.326 -1.8444  0.1626  1.4402
   15CHTO    C3 6311   6.814   4.593   2.211  0.0532 -0.0612 -0.1290
   15CHTO   H16 6312   6.812   4.519   2.292 -0.9038  0.5946  0.4696
   15CHTO    N1 6313   6.868   4.728   2.269 -0.0606 -0.1690 -0.2002
   15CHTO    H8 6314   6.816   4.743   2.363 -0.0149 -0.1063 -0.1853
   15CHTO    H9 6315   6.972   4.709   2.290 -0.9592 -3.3266  1.7785
   15CHTO    C4 6316   6.906   4.534   2.102  0.3121  0.5057  0.0635
   15CHTO   H17 6317   6.907   4.604   2.019 -1.8074 -1.1671 -1.4566
   15CHTO    O1 6318   6.842   4.409   2.057  0.0120  0.3262  0.4804
   15CHTO    C5 6319   6.719   4.431   1.985  0.7519 -0.2617  0.6783
   15CHTO   H18 6320   6.713   4.507   1.907  0.0898 -0.2776  0.7111
   15CHTO   C16 6321   6.700   4.296   1.908  0.1253  0.1763 -0.2799
   15CHTO   O11 6322   6.771   4.270   1.787  0.0264 -0.0005 -0.1655
   15CHTO    H5 6323   6.754   4.342   1.729 -1.0157 -0.6783 -0.7177
   15CHTO    O3 6324   7.040   4.503   2.146 -0.0998  0.2530 -0.2042
   15CHTO    C6 6325   7.140   4.517   2.038 -0.2218 -0.1924  0.0909
   15CHTO   H19 6326   7.100   4.542   1.940  0.3741 -0.1247 -0.1370
   15CHTO    C8 6327   7.242   4.638   2.059 -0.6672  0.6176 -0.5236
   15CHTO   H21 6328   7.277   4.639   2.162 -0.4215 -2.3107 -0.5276
   15CHTO    O7 6329   7.168   4.757   2.025 -0.6455 -0.1363  0.5067
   15CHTO    H2 6330   7.130   4.741   1.941  1.5435 -1.2604 -0.3171
   15CHTO   C12 6331   7.373   4.629   1.967  0.7690 -0.4797  0.4533
   15CHTO   H25 6332   7.345   4.656   1.863  1.1688 -1.1409  0.1685
   15CHTO    N3 6333   7.469   4.729   2.016 -0.7484  0.5451  0.2139
   15CHTO   H12 6334   7.425   4.791   2.093 -0.5847  0.7548  0.1374
   15CHTO   H13 6335   7.553   4.672   2.053 -2.1398 -2.7941 -1.5938
   15CHTO   C15 6336   7.428   4.483   1.964 -0.1076 -0.6081  0.2630
   15CHTO   H28 6337   7.470   4.448   2.058  1.2568  1.8680  0.5964
   15CHTO   O10 6338   7.540   4.469   1.837 -0.2019 -0.1046 -0.3613
   15CHTO    H4 6339   7.505   4.449   1.752  0.3217 -2.4291 -0.0764
   15CHTO    O5 6340   7.321   4.401   1.917 -0.4150 -0.1861 -0.4860
   15CHTO   C10 6341   7.221   4.385   2.017  0.0646  0.4005  0.4844
   15CHTO   H23 6342   7.261   4.335   2.106 -1.7688 -1.9267  0.0615
   15CHTO   C17 6343   7.122   4.277   1.974 -0.0059  0.4329  0.0313
   15CHTO   O12 6344   7.070   4.305   1.846 -0.0407  0.3609  0.2191
   15CHTO    H6 6345   7.004   4.244   1.819 -0.5220  0.3053  1.5025
   16CHTO  H203 6346   4.011   4.066   1.217 -0.3179 -2.0361 -0.3530
   16CHTO   O82 6347   4.058   4.056   1.137  0.1562  0.3433 -0.4024
   16CHTO  C123 6348   4.145   3.947   1.158 -0.2773  0.6651 -0.8532
   16CHTO  H227 6349   4.083   3.856   1.157  0.1382  0.3334  1.4212
   16CHTO   O77 6350   4.231   3.946   1.047  0.2738 -0.0855  0.2177
   16CHTO  C118 6351   4.322   3.836   1.021  0.1534 -0.5502 -0.1421
   16CHTO  H222 6352   4.266   3.741   1.010  1.9909 -1.4641 -1.9826
   16CHTO  C125 6353   4.400   3.867   0.889  0.2538 -0.2888 -0.0649
   16CHTO   O84 6354   4.409   3.740   0.822 -0.7526  0.0949 -0.2602
   16CHTO  H205 6355   4.459   3.744   0.743 -0.3130 -0.5541 -0.0178
   16CHTO  C114 6356   4.427   3.839   1.133 -0.0583  0.1426  0.9246
   16CHTO  H218 6357   4.485   3.929   1.116  0.7314 -0.6672 -0.7527
   16CHTO  C116 6358   4.354   3.851   1.270 -0.0931  0.1350 -0.4587
   16CHTO  H220 6359   4.308   3.753   1.298 -0.8403  1.0452  1.5889
   16CHTO   O79 6360   4.448   3.873   1.381 -0.8987 -0.0950  0.5478
   16CHTO  H201 6361   4.490   3.957   1.372 -0.0861 -0.1068  3.5381
   16CHTO  C120 6362   4.237   3.959   1.281 -0.4171  0.1132  0.3217
   16CHTO  H224 6363   4.288   4.057   1.274 -0.8925  0.3891  0.7405
   16CHTO   N21 6364   4.168   3.954   1.410 -0.1683  0.0719  0.1013
   16CHTO  H211 6365   4.222   4.021   1.475  2.2285 -1.4084 -0.3139
   16CHTO  H212 6366   4.070   3.997   1.400  0.1081  0.7893  0.4417
   16CHTO   O75 6367   4.507   3.712   1.111  0.1634  0.2744  0.1034
   16CHTO  C112 6368   4.637   3.729   1.166 -0.1525 -0.8297 -0.3191
   16CHTO  H216 6369   4.636   3.817   1.232 -0.2799 -1.7996  0.9805
   16CHTO   O73 6370   4.728   3.745   1.053 -0.5648 -0.0096  0.0064
   16CHTO  C113 6371   4.866   3.780   1.089  0.0314 -0.1090  0.5323
   16CHTO  H217 6372   4.859   3.882   1.130 -2.0742  0.4243 -1.1120
   16CHTO  C124 6373   4.952   3.788   0.958 -0.1057  0.5993  0.1991
   16CHTO   O83 6374   5.086   3.835   0.979 -0.1617  0.0965 -0.2935
   16CHTO  H204 6375   5.144   3.773   0.940 -0.0337  0.0924 -0.0992
   16CHTO  C109 6376   4.926   3.677   1.190 -0.1212  0.3412  0.1233
   16CHTO  H213 6377   4.945   3.580   1.142  0.0940 -1.1308  3.0434
   16CHTO  C110 6378   4.832   3.633   1.304 -0.0827 -0.1602  0.0164
   16CHTO  H214 6379   4.821   3.715   1.374  0.3022  0.4471 -0.6255
   16CHTO   O78 6380   4.894   3.529   1.375 -0.0182 -0.0898 -0.1893
   16CHTO  H200 6381   4.872   3.535   1.466  0.5343  1.3723 -0.1413
   16CHTO  C111 6382   4.685   3.601   1.251  0.6256 -0.0790 -0.2995
   16CHTO  H215 6383   4.696   3.520   1.178  0.0629  0.1087 -0.5949
   16CHTO   N19 6384   4.585   3.557   1.354 -0.2935  0.3666 -0.1055
   16CHTO  H207 6385   4.514   3.634   1.383 -0.4297  0.4903 -0.7447
   16CHTO  H208 6386   4.622   3.489   1.429 -0.1964  3.8014  3.1513
   16CHTO   O74 6387   5.044   3.741   1.243 -0.6665 -0.1610 -0.1508
   16CHTO  C115 6388   5.164   3.617   1.243 -0.0454  0.4757  0.1304
   16CHTO  H219 6389   5.133   3.531   1.302 -1.0222  0.5177 -0.3007
   16CHTO   O76 6390   5.197   3.567   1.102 -0.0839  0.4619 -0.2879
   16CHTO  C122 6391   5.307   3.471   1.088 -0.1358 -0.1116 -0.9341
   16CHTO  H226 6392   5.316   3.456   0.980  2.4516 -0.8641 -0.6477
   16CHTO  C126 6393   5.262   3.332   1.148  0.3397  0.3000  0.2094
   16CHTO   O85 6394   5.347   3.216   1.137 -0.1918 -0.2854  0.0649
   16CHTO  H206 6395   5.407   3.207   1.209  2.8062  0.3046 -2.2824
   16CHTO  C121 6396   5.437   3.521   1.164 -0.8443  0.7206 -0.5425
   16CHTO  H225 6397   5.497   3.428   1.166 -0.0014  1.2592 -0.9220
   16CHTO   O81 6398   5.518   3.619   1.092  0.4265  0.2652  0.1576
   16CHTO  H202 6399   5.581   3.660   1.149 -0.5336  0.5595  1.0205
   16CHTO  C119 6400   5.409   3.559   1.303  0.0066 -0.5807 -0.8434
   16CHTO  H223 6401   5.372   3.470   1.355  0.0728 -0.7821 -1.1395
   16CHTO  C117 6402   5.301   3.669   1.312  1.0930  0.2884 -0.2106
   16CHTO  H221 6403   5.323   3.761   1.259 -1.0345  0.2447 -1.2252
   16CHTO   N20 6404   5.288   3.713   1.454  0.0818  0.7015  0.1299
   16CHTO  H209 6405   5.387   3.744   1.484  0.2149  2.5075 -2.0318
   16CHTO  H210 6406   5.209   3.787   1.466  0.0985  0.5730  1.0165
   16CHTO   O80 6407   5.558   3.586   1.376  0.1456  0.6737  0.1937
   16CHTO  C103 6408   5.668   3.479   1.376  0.0482  0.1481  0.4922
   16CHTO  H190 6409   5.634   3.389   1.324 -2.1833  0.6648  0.9904
   16CHTO  C101 6410   5.809   3.518   1.313  0.1808 -0.2418 -0.1652
   16CHTO  H188 6411   5.839   3.604   1.373  1.2051 -0.8013  0.1356
   16CHTO   O68 6412   5.796   3.564   1.159  0.1367  0.1223 -0.2688
   16CHTO  H168 6413   5.879   3.560   1.115  0.1452 -1.8868 -0.0961
   16CHTO   C99 6414   5.906   3.389   1.337 -0.1412  0.1446 -0.3294
   16CHTO  H186 6415   5.865   3.307   1.274 -2.6967  1.3272 -0.2428
   16CHTO   N17 6416   6.044   3.409   1.276 -0.0501 -0.0995  0.6199
   16CHTO  H174 6417   6.056   3.501   1.221 -0.2483  0.4537  1.4896
   16CHTO  H175 6418   6.069   3.326   1.212  0.4640  0.1261  0.5220
   16CHTO   C97 6419   5.910   3.336   1.483  1.2475 -0.1591  0.2309
   16CHTO  H184 6420   5.962   3.408   1.547  0.3092 -0.4458  1.3502
   16CHTO   O64 6421   5.773   3.316   1.526  0.8131  0.0248  0.1993
   16CHTO  C104 6422   5.699   3.438   1.525 -0.0083 -0.3253 -0.0437
   16CHTO  H191 6423   5.754   3.522   1.567  0.6032 -0.0320 -1.3969
   16CHTO  C108 6424   5.577   3.419   1.607  0.1335 -0.9865  0.2573
   16CHTO   O71 6425   5.587   3.469   1.742 -0.1679  0.3500  0.1309
   16CHTO  H171 6426   5.512   3.455   1.796 -1.5027  3.2865 -0.8822
   16CHTO   O62 6427   5.964   3.197   1.495  0.7335 -0.3280 -0.0708
   16CHTO   C91 6428   6.017   3.156   1.624 -0.4023 -0.3099  0.2204
   16CHTO  H178 6429   5.971   3.227   1.692 -0.4571  1.4531 -1.6218
   16CHTO   C92 6430   6.172   3.165   1.618  0.2994  0.0622 -0.2210
   16CHTO  H179 6431   6.205   3.109   1.529  1.5559  0.1191  0.1927
   16CHTO   O66 6432   6.212   3.303   1.600  0.5357  0.1019  0.2995
   16CHTO  H166 6433   6.304   3.319   1.595  0.3832  0.6077 -0.9685
   16CHTO   C93 6434   6.237   3.097   1.754  0.0068 -0.0476  0.0252
   16CHTO  H180 6435   6.213   3.166   1.837 -1.7502 -0.4083 -0.1628
   16CHTO   N16 6436   6.381   3.088   1.763  0.6523  0.2667  0.3745
   16CHTO  H172 6437   6.411   2.984   1.761  0.7354  0.2756  0.9841
   16CHTO  H173 6438   6.427   3.135   1.677 -0.5747  0.3214 -0.2668
   16CHTO   C94 6439   6.175   2.959   1.791 -0.4949 -0.4381 -0.4437
   16CHTO  H181 6440   6.198   2.883   1.717 -0.5614 -0.6145 -0.2842
   16CHTO   O61 6441   6.023   2.967   1.783 -0.4136 -0.7229 -0.0876
   16CHTO   C95 6442   5.969   3.011   1.662  0.4971  0.3077 -0.9570
   16CHTO  H182 6443   5.995   2.936   1.587 -0.5447 -2.3380  1.2438
   16CHTO  C106 6444   5.812   3.011   1.666 -0.2261 -0.2245  0.2872
   16CHTO   O69 6445   5.755   2.881   1.689  0.0069  0.0089  0.3241
   16CHTO  H169 6446   5.769   2.851   1.777 -2.5949 -1.2378  0.3720
   16CHTO   O63 6447   6.199   2.911   1.949 -0.6167 -0.1486  0.0936
   16CHTO   C96 6448   6.112   2.772   1.993 -0.8936 -0.0166  0.1585
   16CHTO  H183 6449   6.172   2.721   2.069  1.1601 -1.2911 -2.2541
   16CHTO   C98 6450   6.094   2.670   1.882  0.0825 -0.0821  0.4776
   16CHTO  H185 6451   6.055   2.730   1.798  1.4785  0.1079 -0.0502
   16CHTO   O67 6452   6.224   2.621   1.849  0.0541 -0.3295  0.4274
   16CHTO  H167 6453   6.276   2.697   1.829 -1.0891  0.3646  0.0620
   16CHTO  C102 6454   5.992   2.552   1.923 -0.4011  0.7308  0.7475
   16CHTO  H189 6455   6.034   2.508   2.014  1.7773 -1.1444 -1.0933
   16CHTO   N18 6456   5.979   2.435   1.826  0.6596  0.3503 -0.1535
   16CHTO  H176 6457   5.914   2.361   1.871  0.5986  1.5341  1.7617
   16CHTO  H177 6458   6.073   2.398   1.789  0.4643 -2.0972  1.6255
   16CHTO  C105 6459   5.855   2.623   1.948  0.4071 -0.3028  0.1642
   16CHTO  H192 6460   5.834   2.685   1.860 -1.5670 -1.5511 -0.2664
   16CHTO   O65 6461   5.882   2.704   2.066  0.1606  0.3900 -0.3307
   16CHTO  C100 6462   5.973   2.813   2.053  0.5176 -0.2096 -0.2270
   16CHTO  H187 6463   5.935   2.886   1.980  0.8471  0.9592  0.7520
   16CHTO  C107 6464   5.997   2.896   2.179 -0.1137  0.2384 -0.0883
   16CHTO   O70 6465   5.865   2.948   2.209 -0.1738  0.1987 -0.6276
   16CHTO  H170 6466   5.815   2.876   2.242 -1.0869  0.7823 -0.7158
   16CHTO   O57 6467   5.716   2.523   1.970 -1.2134  0.3363  0.4223
   16CHTO   C85 6468   5.589   2.591   1.945  0.1438 -0.3629  0.6202
   16CHTO  H157 6469   5.597   2.629   1.841 -3.2109 -1.9712 -0.3021
   16CHTO   C83 6470   5.569   2.716   2.028  0.3301 -0.3907 -0.5843
   16CHTO  H155 6471   5.653   2.779   1.997  0.5131  0.6882  1.9773
   16CHTO   O56 6472   5.581   2.693   2.175 -0.2250  0.5513 -0.3849
   16CHTO  H135 6473   5.530   2.748   2.232 -1.3358  0.3739 -1.1901
   16CHTO   C81 6474   5.433   2.789   1.988 -0.4455 -0.3010 -0.7412
   16CHTO  H153 6475   5.432   2.802   1.879 -0.7305 -2.2071 -0.9810
   16CHTO   N14 6476   5.424   2.929   2.035 -0.5996 -0.3222  0.3916
   16CHTO  H141 6477   5.457   2.993   1.956 -1.0458 -0.6314 -0.0536
   16CHTO  H142 6478   5.320   2.946   2.053 -0.7400 -1.0668  0.2879
   16CHTO   C79 6479   5.312   2.701   2.029  0.2994 -0.1336  0.2200
   16CHTO  H151 6480   5.224   2.746   1.984 -0.6860 -2.9580 -0.7737
   16CHTO   O52 6481   5.319   2.565   1.977  0.3777 -0.1293  0.2704
   16CHTO   C86 6482   5.454   2.504   1.961 -0.1108  0.4509  0.0814
   16CHTO  H158 6483   5.455   2.434   2.047 -0.8594 -0.6325 -0.7733
   16CHTO   C90 6484   5.455   2.419   1.830 -0.3033  0.0152 -0.1685
   16CHTO   O60 6485   5.358   2.316   1.840 -0.1535 -0.1666  0.1668
   16CHTO  H138 6486   5.273   2.354   1.843  0.3142  0.8299  1.7634
   16CHTO   O50 6487   5.277   2.688   2.171 -0.8248  0.1077 -0.1975
   16CHTO   C73 6488   5.192   2.618   2.263 -0.0738  0.0714 -0.4354
   16CHTO  H145 6489   5.235   2.520   2.289  1.0224  0.4900 -0.6584
   16CHTO   C74 6490   5.050   2.591   2.195 -0.4693  0.0949 -0.0196
   16CHTO  H146 6491   5.065   2.539   2.100 -0.5283  0.9630 -0.5025
   16CHTO   O54 6492   4.988   2.499   2.284 -0.0252  0.8179  0.0856
   16CHTO  H133 6493   4.897   2.501   2.263  0.7694  1.0360 -3.5781
   16CHTO   C75 6494   4.977   2.728   2.175  0.2903  0.7522  0.3929
   16CHTO  H147 6495   5.030   2.782   2.095  1.4245 -0.1356  0.5246
   16CHTO   N13 6496   4.843   2.720   2.117  0.1263  0.0034 -0.1827
   16CHTO  H139 6497   4.810   2.618   2.129 -0.3587  0.3834  1.8569
   16CHTO  H140 6498   4.772   2.781   2.169  1.9674  0.7873  1.4732
   16CHTO   C76 6499   4.981   2.821   2.301 -0.3800  0.0378 -0.8398
   16CHTO  H148 6500   4.916   2.779   2.378  1.5461 -0.4952  0.5406
   16CHTO   O49 6501   5.111   2.827   2.349 -0.2816  0.9644 -0.2562
   16CHTO   C77 6502   5.160   2.701   2.392  0.8452  0.0499  1.1047
   16CHTO  H149 6503   5.079   2.651   2.446  0.0846  0.0998  0.0276
   16CHTO   C88 6504   5.280   2.723   2.481 -0.1824  0.2013 -0.1741
   16CHTO   O58 6505   5.317   2.592   2.574 -0.3683  0.4141  0.2982
   16CHTO  H136 6506   5.411   2.589   2.580 -0.2560 -1.3756 -1.5394
   16CHTO   O51 6507   4.944   2.989   2.259 -0.2657 -0.0728  0.3134
   16CHTO   C78 6508   4.918   3.071   2.374  0.7827  0.2121  0.2473
   16CHTO  H150 6509   4.925   3.012   2.468  1.3536  1.2768  0.8753
   16CHTO   C80 6510   4.770   3.125   2.366 -0.4471  0.2534  0.5947
   16CHTO  H152 6511   4.759   3.175   2.267  0.3475 -0.6318  0.0557
   16CHTO   O55 6512   4.684   3.013   2.370 -0.2507  0.6211 -1.0085
   16CHTO  H134 6513   4.596   3.046   2.366 -0.0337  1.1247 -1.7969
   16CHTO   C84 6514   4.745   3.221   2.488  0.2839  0.3922  0.0520
   16CHTO  H156 6515   4.759   3.166   2.580 -1.0557 -0.2166 -0.0968
   16CHTO   N15 6516   4.603   3.278   2.492  0.5046 -0.2153  0.1801
   16CHTO  H143 6517   4.603   3.372   2.544 -2.1058 -0.4108  0.5932
   16CHTO  H144 6518   4.566   3.295   2.393 -0.8553 -2.0184  0.3638
   16CHTO   C87 6519   4.849   3.336   2.506 -0.9632  0.0230 -0.4439
   16CHTO  H159 6520   4.843   3.408   2.424  0.3234 -0.1057 -0.6651
   16CHTO   O53 6521   4.985   3.270   2.503  0.3307  0.4917 -0.6756
   16CHTO   C82 6522   5.007   3.193   2.384 -0.2712 -0.1797  0.1255
   16CHTO  H154 6523   5.006   3.251   2.292  2.9617  2.2590  1.5320
   16CHTO   C89 6524   5.153   3.147   2.389  0.1174 -0.2920 -0.9152
   16CHTO   O59 6525   5.236   3.268   2.398 -0.7053  0.0381 -0.6929
   16CHTO  H137 6526   5.217   3.308   2.481  1.5724  1.2152 -0.6999
   16CHTO   O45 6527   4.839   3.426   2.642 -0.1675  0.1207 -0.0818
   16CHTO   C67 6528   4.930   3.535   2.650 -0.1918  0.4560  0.2978
   16CHTO  H124 6529   4.990   3.533   2.559 -0.5824 -0.1957  0.0558
   16CHTO   C65 6530   4.853   3.668   2.654 -0.2022  0.0865  0.0785
   16CHTO  H122 6531   4.756   3.648   2.698 -0.0487  0.1987  0.4699
   16CHTO   O44 6532   4.836   3.713   2.518  0.5896  0.0969 -0.9330
   16CHTO  H102 6533   4.919   3.738   2.484  1.3213  0.5456  1.0902
   16CHTO   C63 6534   4.923   3.771   2.754 -0.0311  0.1782 -0.1410
   16CHTO  H120 6535   4.891   3.747   2.855 -0.1915 -1.1478 -0.5053
   16CHTO   N11 6536   4.871   3.913   2.753  0.2634  0.3986 -0.0284
   16CHTO  H108 6537   4.895   3.974   2.837  3.5045 -1.1588  0.2416
   16CHTO  H109 6538   4.771   3.924   2.716  0.4652 -2.0556 -1.4270
   16CHTO   C61 6539   5.082   3.764   2.759  0.0161 -0.4140  0.0216
   16CHTO  H118 6540   5.114   3.819   2.849 -0.4153  0.3185 -0.2684
   16CHTO   O40 6541   5.131   3.630   2.772  0.1944 -0.9913  0.2447
   16CHTO   C68 6542   5.031   3.525   2.771  0.1625 -0.3523 -0.2855
   16CHTO  H125 6543   4.970   3.533   2.863  0.0294  1.4657 -0.5168
   16CHTO   C72 6544   5.110   3.392   2.779  0.2590  0.8876 -0.2532
   16CHTO   O48 6545   5.190   3.376   2.898 -0.1126  0.3028 -0.4615
   16CHTO  H105 6546   5.229   3.451   2.938 -2.7517  0.5042  1.8931
   16CHTO   O38 6547   5.135   3.833   2.642 -0.4772 -0.1764 -0.0766
   16CHTO   C55 6548   5.277   3.833   2.629  0.1463  0.3756  0.1234
   16CHTO  H112 6549   5.318   3.780   2.716  0.0659  0.0098 -0.0598
   16CHTO   C56 6550   5.333   3.979   2.622  0.0060  0.0943  0.1330
   16CHTO  H113 6551   5.287   4.028   2.535 -0.5750  0.5127  0.6705
   16CHTO   O42 6552   5.295   4.059   2.739  0.0937  0.4329  0.0587
   16CHTO  H100 6553   5.202   4.056   2.749 -0.1264  1.4132 -1.5590
   16CHTO   C57 6554   5.493   3.965   2.598  0.3680 -0.6732 -0.0993
   16CHTO  H114 6555   5.527   3.927   2.695  1.9432  1.5212  0.2566
   16CHTO   N10 6556   5.565   4.089   2.581 -0.0461  0.0063 -0.0703
   16CHTO  H106 6557   5.574   4.108   2.475 -0.7809  0.2308 -0.0903
   16CHTO  H107 6558   5.664   4.087   2.625 -0.8237 -1.4161  1.6583
   16CHTO   C58 6559   5.531   3.859   2.487 -0.2313  0.4413 -0.2066
   16CHTO  H115 6560   5.518   3.910   2.389 -2.1445  1.6104  0.6438
   16CHTO   O37 6561   5.454   3.739   2.485  0.9479 -0.2086 -0.0823
   16CHTO   C59 6562   5.313   3.764   2.494  0.0588  0.7350 -1.2017
   16CHTO  H116 6563   5.278   3.823   2.409  0.9838  2.3141 -0.5131
   16CHTO   C70 6564   5.241   3.631   2.477  0.4540 -0.1761 -0.6722
   16CHTO   O46 6565   5.252   3.593   2.338  0.3615 -0.0730  0.0908
   16CHTO  H103 6566   5.182   3.628   2.286 -0.5161 -1.0423  0.5996
   16CHTO   O39 6567   5.681   3.800   2.527  0.0642 -0.5677  0.0959
   16CHTO   C60 6568   5.756   3.768   2.408 -0.6295  0.4347 -0.6816
   16CHTO  H117 6569   5.702   3.782   2.315 -1.6689 -0.1930 -0.1878
   16CHTO   C62 6570   5.865   3.882   2.381  0.2750  0.1008 -0.5868
   16CHTO  H119 6571   5.812   3.979   2.366  0.7536  0.1082 -2.3223
   16CHTO   O43 6572   5.952   3.887   2.497 -0.4921 -0.1566  0.3284
   16CHTO  H101 6573   6.022   3.824   2.493  1.0535  1.4341  1.4296
   16CHTO   C66 6574   5.940   3.858   2.243  0.0125 -0.5207  0.2554
   16CHTO  H123 6575   5.864   3.849   2.165  0.0395  0.2651  0.1416
   16CHTO   N12 6576   6.027   3.965   2.205 -0.6245  0.0924 -0.4335
   16CHTO  H110 6577   5.966   4.022   2.136 -0.2900 -0.0276 -0.8334
   16CHTO  H111 6578   6.058   4.010   2.298  1.6465  1.0590 -1.5908
   16CHTO   C69 6579   6.013   3.725   2.250  0.0284  0.2312  0.1879
   16CHTO  H126 6580   6.078   3.717   2.340  0.6710  2.2529 -0.0730
   16CHTO   O41 6581   5.902   3.598   2.270 -0.1479 -0.0394  0.5811
   16CHTO   C64 6582   5.812   3.616   2.407 -0.2122  0.5045 -0.5881
   16CHTO  H121 6583   5.881   3.591   2.491  0.8333  0.1684 -1.5469
   16CHTO   C71 6584   5.698   3.514   2.388 -0.3521 -0.1748  0.3794
   16CHTO   O47 6585   5.600   3.555   2.289  0.3144 -0.0993 -0.4994
   16CHTO  H104 6586   5.588   3.484   2.229  0.1028 -0.2701 -0.2601
   16CHTO   O34 6587   6.105   3.689   2.124  0.0755 -0.4734  0.2513
   16CHTO   C49 6588   6.216   3.621   2.068  0.0645  0.4990  0.4481
   16CHTO   H91 6589   6.207   3.520   2.109  1.1816  0.0828 -0.3145
   16CHTO   C47 6590   6.350   3.689   2.119  0.7496  0.0270  0.2469
   16CHTO   H89 6591   6.361   3.648   2.222 -0.6512 -1.1074 -0.0425
   16CHTO   O33 6592   6.337   3.833   2.124 -0.2764 -0.1299 -0.0268
   16CHTO   H70 6593   6.250   3.850   2.155 -0.7875 -1.8828 -0.4413
   16CHTO   C45 6594   6.468   3.654   2.018 -0.9779 -0.5597  0.8245
   16CHTO   H87 6595   6.461   3.730   1.939  2.4102 -1.5085 -0.4769
   16CHTO    N8 6596   6.596   3.667   2.083 -0.8306 -0.6864  0.0692
   16CHTO   H75 6597   6.623   3.612   2.172  2.0468 -0.2611 -0.4777
   16CHTO   H76 6598   6.681   3.638   2.022  0.0867  0.5757  0.7188
   16CHTO   C43 6599   6.453   3.519   1.941 -0.4979 -0.2402  0.5587
   16CHTO   H85 6600   6.539   3.505   1.876 -1.8018 -0.0433 -1.2611
   16CHTO   O29 6601   6.334   3.519   1.864  0.2577 -0.0677  0.5711
   16CHTO   C50 6602   6.220   3.600   1.911  0.0304 -0.7116  0.2230
   16CHTO   H92 6603   6.228   3.699   1.864  0.5005 -2.0667 -2.6406
   16CHTO   C54 6604   6.079   3.547   1.888 -0.1793  0.4614  0.0076
   16CHTO   O36 6605   6.027   3.617   1.782 -0.4448 -0.0260 -0.1445
   16CHTO   H72 6606   5.954   3.570   1.746  1.0212 -1.3401 -1.5025
   16CHTO   O27 6607   6.449   3.406   2.020 -0.1695 -0.2842 -0.5730
   16CHTO   C37 6608   6.507   3.326   2.126  0.1374 -0.0244  0.7331
   16CHTO   H79 6609   6.557   3.390   2.199  2.3354  2.3726 -2.7305
   16CHTO   C38 6610   6.388   3.249   2.203  0.0898  0.1934  0.0473
   16CHTO   H80 6611   6.329   3.185   2.135  0.1927 -0.3701  0.4841
   16CHTO   O31 6612   6.297   3.356   2.254  0.3751 -0.0901 -0.0254
   16CHTO   H68 6613   6.225   3.312   2.296  0.3408 -1.0293 -1.0537
   16CHTO   C39 6614   6.452   3.167   2.323 -0.4438 -0.0134 -0.1168
   16CHTO   H81 6615   6.507   3.222   2.400 -1.3873 -0.2301  0.7339
   16CHTO    N7 6616   6.352   3.086   2.403 -0.5263  0.3175  0.1228
   16CHTO   H73 6617   6.370   2.980   2.402 -0.6858  0.2614  2.4512
   16CHTO   H74 6618   6.348   3.117   2.506 -0.3051 -0.5853  0.4013
   16CHTO   C40 6619   6.556   3.070   2.263  0.1136  0.2776  0.2449
   16CHTO   H82 6620   6.517   2.995   2.194  0.5735 -0.3510  0.6624
   16CHTO   O26 6621   6.659   3.151   2.197  0.3385  0.8828  0.4547
   16CHTO   C41 6622   6.609   3.214   2.076  0.1297  0.0125 -0.2687
   16CHTO   H83 6623   6.557   3.139   2.015 -0.1939  0.8467 -1.0224
   16CHTO   C52 6624   6.730   3.276   1.996 -0.4335 -0.1928 -0.0289
   16CHTO   O35 6625   6.686   3.299   1.861  0.0505 -0.2289 -0.1921
   16CHTO   H71 6626   6.748   3.253   1.808  0.8899  0.7279 -0.0548
   16CHTO   O28 6627   6.635   2.994   2.361  0.1309  0.1759  0.8536
   16CHTO   C42 6628   6.676   2.851   2.348 -0.1749 -0.2354  0.2919
   16CHTO   H84 6629   6.748   2.845   2.430 -0.4086  0.4493  0.5588
   16CHTO   C44 6630   6.752   2.811   2.216  0.0045 -0.1142 -0.7687
   16CHTO   H86 6631   6.691   2.836   2.130 -0.1694  0.3463 -0.5136
   16CHTO   O32 6632   6.878   2.874   2.199  1.0104 -0.5137 -0.3451
   16CHTO   H69 6633   6.869   2.943   2.136  0.5014 -0.7841 -0.5718
   16CHTO   C48 6634   6.784   2.653   2.226  0.7127  0.0158  0.1347
   16CHTO   H90 6635   6.848   2.629   2.311 -1.9321 -0.9514  1.9350
   16CHTO    N9 6636   6.864   2.609   2.101 -0.2818 -0.2259 -1.5007
   16CHTO   H77 6637   6.928   2.689   2.067 -1.4039  0.5865 -1.7429
   16CHTO   H78 6638   6.794   2.580   2.024 -0.4733 -0.9753 -1.0462
   16CHTO   C51 6639   6.646   2.574   2.238 -0.0804  0.4662  0.4473
   16CHTO   H93 6640   6.583   2.600   2.153  0.0023  0.3274  0.3426
   16CHTO   O30 6641   6.589   2.605   2.362 -0.0673  0.0583  0.2119
   16CHTO   C46 6642   6.553   2.755   2.382  0.5891  0.1118 -0.5753
   16CHTO   H88 6643   6.472   2.786   2.315  2.5504  2.1384 -2.0971
   16CHTO   C53 6644   6.517   2.785   2.530  0.3046  0.1938 -0.6148
   16CHTO   O72 6645   6.417   2.691   2.591  0.1490 -0.0003 -0.0480
   16CHTO  H199 6646   6.396   2.716   2.678 -3.1375 -0.9198 -0.5259
   16CHTO   O22 6647   6.673   2.434   2.229 -0.0354 -0.5053 -0.0061
   16CHTO   C31 6648   6.570   2.336   2.244  0.0725 -0.0133 -0.8540
   16CHTO   H59 6649   6.519   2.364   2.338 -0.2983 -0.4765 -0.9123
   16CHTO   C29 6650   6.459   2.347   2.130  0.1029 -0.2944  0.1946
   16CHTO   H57 6651   6.513   2.338   2.035  0.2338 -1.9862  0.4210
   16CHTO   O21 6652   6.387   2.474   2.135  0.9335 -0.1053  0.0619
   16CHTO   H37 6653   6.300   2.453   2.105  0.7948 -1.3182  1.2405
   16CHTO   C27 6654   6.362   2.222   2.143  0.7396 -0.5013  0.3147
   16CHTO   H55 6655   6.299   2.241   2.231  0.5771  0.2457  0.0462
   16CHTO    N5 6656   6.277   2.218   2.019  0.1449 -0.2212  0.0042
   16CHTO   H43 6657   6.239   2.318   2.003  0.0623  0.1075  2.0696
   16CHTO   H44 6658   6.195   2.153   2.043 -2.0668  1.8326 -1.7492
   16CHTO   C25 6659   6.441   2.092   2.162 -0.2264  0.4740  0.1920
   16CHTO   H53 6660   6.515   2.094   2.080  0.0938 -0.5459  0.4446
   16CHTO   O17 6661   6.520   2.100   2.284 -0.4743 -0.2252  0.0760
   16CHTO   C32 6662   6.628   2.196   2.273 -0.3937 -0.3727  0.2058
   16CHTO   H60 6663   6.700   2.171   2.195 -1.3444  0.4736 -0.9732
   16CHTO   C36 6664   6.710   2.192   2.399  0.3926  0.1646 -0.0998
   16CHTO   O25 6665   6.626   2.196   2.525 -0.3692  0.1962 -0.1901
   16CHTO   H40 6666   6.568   2.123   2.531  1.6742 -1.3726  1.3190
   16CHTO   O15 6667   6.348   1.955   2.175  0.1211  0.1057 -0.3301
   16CHTO   C19 6668   6.263   1.884   2.272 -0.3000 -0.1445 -0.2635
   16CHTO   H47 6669   6.315   1.789   2.289 -2.8752 -1.9519 -2.1078
   16CHTO   C20 6670   6.254   1.953   2.408 -0.4034  0.6897 -0.0724
   16CHTO   H48 6671   6.220   2.057   2.401 -2.3684 -0.0555 -2.6007
   16CHTO   O19 6672   6.390   1.952   2.453  0.6577  0.8971 -0.2610
   16CHTO   H35 6673   6.394   1.983   2.541 -0.4811 -1.8641  0.7847
   16CHTO   C21 6674   6.152   1.888   2.522 -0.0790  0.3978  0.2741
   16CHTO   H49 6675   6.194   1.793   2.556  1.2110  2.0946  3.5641
   16CHTO    N4 6676   6.138   1.989   2.634 -0.1329  0.0010  0.4504
   16CHTO   H41 6677   6.037   2.026   2.641  0.1434  1.7149 -3.3283
   16CHTO   H42 6678   6.172   1.950   2.729 -3.0709 -0.4506  1.3801
   16CHTO   C22 6679   6.023   1.854   2.444 -0.1901  0.5088 -0.3850
   16CHTO   H50 6680   5.979   1.950   2.420 -1.0795  0.0498 -0.5864
   16CHTO   O14 6681   6.041   1.776   2.325 -0.0294  0.3704 -0.2508
   16CHTO   C23 6682   6.117   1.847   2.226  0.3178 -0.1390 -0.1791
   16CHTO   H51 6683   6.057   1.937   2.205  0.4644 -0.0624 -0.2792
   16CHTO   C34 6684   6.107   1.768   2.090 -0.0617 -0.2960 -0.6902
   16CHTO   O23 6685   6.168   1.834   1.983 -0.4766 -0.6792 -0.2060
   16CHTO   H38 6686   6.154   1.782   1.906  0.0150 -1.5448  0.2808
   16CHTO   O16 6687   5.946   1.766   2.526 -0.2293  0.0066 -0.4864
   16CHTO   C24 6688   5.801   1.725   2.445  0.5247  0.2763 -0.3294
   16CHTO   H52 6689   5.807   1.739   2.337  2.0231 -2.4564 -0.6499
   16CHTO   C26 6690   5.685   1.817   2.494  0.0590  0.0681  0.8064
   16CHTO   H54 6691   5.674   1.804   2.604  0.0395 -1.8161  0.6075
   16CHTO   O20 6692   5.723   1.948   2.451  0.1073 -0.4276 -0.2200
   16CHTO   H36 6693   5.674   1.984   2.379 -0.1219  1.4513  0.8276
   16CHTO   C30 6694   5.554   1.768   2.425 -0.2521  0.6076  0.0766
   16CHTO   H58 6695   5.567   1.799   2.321  0.5985  1.6845  0.4922
   16CHTO    N6 6696   5.430   1.836   2.478  0.8996 -0.0288 -0.2227
   16CHTO   H45 6697   5.418   1.937   2.442 -2.8708 -0.6470 -0.9209
   16CHTO   H46 6698   5.427   1.836   2.586  0.2631 -1.4851 -0.2341
   16CHTO   C33 6699   5.537   1.614   2.432 -0.0797  0.2046  0.2361
   16CHTO   H61 6700   5.516   1.587   2.536  1.5625  1.5662  0.9417
   16CHTO   O18 6701   5.651   1.544   2.390 -0.1613  0.5659  0.1619
   16CHTO   C28 6702   5.769   1.578   2.466 -0.3735 -0.5585 -0.8791
   16CHTO   H56 6703   5.748   1.565   2.572 -0.8942 -2.0289 -1.1470
   16CHTO   C35 6704   5.887   1.481   2.428 -0.3080 -0.5130  0.0303
   16CHTO   O24 6705   5.866   1.351   2.492 -0.4817  0.2293  0.0085
   16CHTO   H39 6706   5.911   1.283   2.445  2.3239  1.5986  0.6097
   16CHTO    O9 6707   5.425   1.571   2.354  0.3750  0.3620  0.0747
   16CHTO   C13 6708   5.378   1.411   2.410 -0.3731 -0.4481  0.8759
   16CHTO   H26 6709   5.385   1.393   2.519 -1.2244 -1.2742  0.7980
   16CHTO   C11 6710   5.463   1.301   2.323 -0.5607  0.1382  0.2159
   16CHTO   H24 6711   5.563   1.301   2.370 -0.7793  0.0291  0.6825
   16CHTO    O8 6712   5.457   1.340   2.191 -0.4470  0.2596 -0.0772
   16CHTO    H3 6713   5.498   1.275   2.136  0.3890  0.7149 -0.0020
   16CHTO    C9 6714   5.412   1.165   2.355 -0.4436  0.0803 -0.6988
   16CHTO   H22 6715   5.436   1.145   2.461 -0.4479 -1.7849 -1.0313
   16CHTO    N2 6716   5.480   1.056   2.284  0.2422  0.1011 -0.0558
   16CHTO   H10 6717   5.483   1.071   2.178  0.6542 -2.4789 -0.4447
   16CHTO   H11 6718   5.413   0.971   2.293 -1.8619  1.7084 -0.0040
   16CHTO    C7 6719   5.253   1.156   2.348  0.5186 -0.8981 -0.8749
   16CHTO   H20 6720   5.237   1.156   2.458 -0.2695  1.8348 -0.9713
   16CHTO    O4 6721   5.191   1.278   2.296 -0.1599 -0.8770  0.5933
   16CHTO   C14 6722   5.224   1.396   2.375 -0.2388 -1.0166  0.2878
   16CHTO   H27 6723   5.169   1.394   2.472 -1.1326 -0.0606 -0.1921
   16CHTO   C18 6724   5.169   1.517   2.292  0.6368 -0.0030 -0.2227
   16CHTO   O13 6725   5.021   1.511   2.270 -0.1870 -0.6442 -0.0655
   16CHTO    H7 6726   5.002   1.524   2.180  0.9879  2.3987  0.0741
   16CHTO    O2 6727   5.180   1.038   2.296 -0.0669 -0.1861 -0.3451
   16CHTO    C1 6728   5.062   0.997   2.369  0.9606  0.5807 -0.4449
   16CHTO   H14 6729   5.013   0.923   2.302  0.9165  0.5269 -0.3529
   16CHTO    C2 6730   4.961   1.109   2.401  0.7675 -0.0368 -0.6075
   16CHTO   H15 6731   5.020   1.188   2.450  1.9960  0.4726 -2.8470
   16CHTO    O6 6732   4.912   1.166   2.276  0.4239 -0.1755  0.2856
   16CHTO    H1 6733   4.889   1.098   2.215  1.9996 -0.4366 -0.0345
   16CHTO    C3 6734   4.838   1.050   2.492 -0.3420  0.2551 -0.3053
   16CHTO   H16 6735   4.766   0.994   2.432  0.1887  1.4844 -2.1342
   16CHTO    N1 6736   4.757   1.166   2.551  0.2481 -0.8036  0.8510
   16CHTO    H8 6737   4.660   1.170   2.504  0.5301  0.7857  0.3573
   16CHTO    H9 6738   4.758   1.144   2.656  1.3229 -0.8528  0.8360
   16CHTO    C4 6739   4.896   0.957   2.610  0.3060 -0.1405  0.1468
   16CHTO   H17 6740   4.936   1.030   2.681 -0.4396 -0.2772  0.7088
   16CHTO    O1 6741   4.989   0.861   2.557 -0.8076  0.4777  0.5815
   16CHTO    C5 6742   5.105   0.920   2.502 -0.1809  0.1261 -0.1982
   16CHTO   H18 6743   5.147   0.994   2.570 -0.4249 -0.4750  0.6049
   16CHTO   C16 6744   5.208   0.808   2.467  0.0775  0.4263  0.6134
   16CHTO   O11 6745   5.251   0.741   2.588  0.0243 -0.9573  0.3588
   16CHTO    H5 6746   5.209   0.658   2.600  0.3167 -0.7544  3.0623
   16CHTO    O3 6747   4.797   0.869   2.672  1.1991 -0.1920 -0.6520
   16CHTO    C6 6748   4.809   0.832   2.813  0.0357  0.4404  0.4061
   16CHTO   H19 6749   4.900   0.860   2.867  0.5436 -0.7620  0.2063
   16CHTO    C8 6750   4.696   0.916   2.876  0.4131 -0.0302 -0.8862
   16CHTO   H21 6751   4.603   0.894   2.822  0.2072  2.8304 -1.7848
   16CHTO    O7 6752   4.721   1.055   2.869 -0.1057 -0.2148  0.2243
   16CHTO    H2 6753   4.795   1.067   2.925  0.1437 -1.6594  0.2150
   16CHTO   C12 6754   4.671   0.865   3.028 -0.1227  0.2224  0.5208
   16CHTO   H25 6755   4.761   0.901   3.082 -0.0605  2.2006 -0.8682
   16CHTO    N3 6756   4.549   0.925   3.089  0.2165 -0.9050 -0.3574
   16CHTO   H12 6757   4.502   0.997   3.024  1.4805 -1.3558 -1.8067
   16CHTO   H13 6758   4.580   0.964   3.185 -1.4074  0.6288 -0.4386
   16CHTO   C15 6759   4.665   0.705   3.038 -0.0296 -0.4387 -0.2093
   16CHTO   H28 6760   4.572   0.666   2.996 -0.7389  0.7670  0.2150
   16CHTO   O10 6761   4.694   0.646   3.180 -0.7844  0.3246 -0.2946
   16CHTO    H4 6762   4.637   0.687   3.243 -1.4503 -0.8528 -0.1058
   16CHTO    O5 6763   4.774   0.650   2.973  0.7093  0.0133 -0.0046
   16CHTO   C10 6764   4.791   0.683   2.832  0.1222  0.0145  0.3113
   16CHTO   H23 6765   4.704   0.644   2.779  0.8861 -1.6670  0.2562
   16CHTO   C17 6766   4.916   0.619   2.786  0.2185  0.6828 -0.1826
   16CHTO   O12 6767   4.897   0.490   2.726  0.0038  0.5039 -0.5795
   16CHTO    H6 6768   4.897   0.431   2.798  0.7605  0.8916 -0.2553
   17CHTO  H203 6769   3.712   4.939   0.962 -0.5476  0.6261  0.1076
   17CHTO   O82 6770   3.760   5.019   0.966 -0.2006  0.4371 -0.2355
   17CHTO  C123 6771   3.790   5.063   1.096  0.2321 -0.1184  0.3326
   17CHTO  H227 6772   3.709   5.028   1.162 -0.6993 -0.9638 -1.2256
   17CHTO   O77 6773   3.912   4.994   1.124 -0.4393  0.5075 -0.5705
   17CHTO  C118 6774   3.965   5.016   1.255 -0.2416  0.1679 -0.0204
   17CHTO  H222 6775   3.876   5.019   1.321  0.1086 -0.4197  0.4794
   17CHTO  C125 6776   4.067   4.898   1.299 -0.3649 -0.1012 -0.1790
   17CHTO   O84 6777   4.150   4.858   1.193  0.3868  0.0692  0.2820
   17CHTO  H205 6778   4.093   4.847   1.119  1.9193 -0.4025 -0.8586
   17CHTO  C114 6779   4.033   5.153   1.264 -0.1569  0.0706  0.1288
   17CHTO  H218 6780   4.109   5.152   1.186 -1.6916  1.1570 -1.4328
   17CHTO  C116 6781   3.917   5.258   1.230  0.6131 -0.4580 -0.1279
   17CHTO  H220 6782   3.863   5.266   1.326  0.9385  0.4271 -0.0141
   17CHTO   O79 6783   3.963   5.395   1.213  0.3109 -0.1196  0.4975
   17CHTO  H201 6784   3.895   5.446   1.174 -1.4127 -1.5565  1.5564
   17CHTO  C120 6785   3.825   5.217   1.111  0.2263  0.7444 -0.1563
   17CHTO  H224 6786   3.881   5.242   1.018 -0.0980  0.1194 -0.5274
   17CHTO   N21 6787   3.703   5.300   1.097  0.5764  0.6789 -0.1437
   17CHTO  H211 6788   3.724   5.375   1.023 -1.2074  0.1380 -1.2363
   17CHTO  H212 6789   3.682   5.356   1.188 -0.5051 -1.8699  1.2278
   17CHTO   O75 6790   4.114   5.166   1.386  0.4185 -0.0307  0.1336
   17CHTO  C112 6791   4.205   5.310   1.396 -0.0167 -0.5233  0.2102
   17CHTO  H216 6792   4.133   5.391   1.416  1.8649  0.6801  2.4171
   17CHTO   O73 6793   4.271   5.325   1.273 -0.6243 -0.1669  0.2860
   17CHTO  C113 6794   4.320   5.458   1.271 -0.5952 -1.1715  0.4429
   17CHTO  H217 6795   4.236   5.524   1.299 -1.3793 -0.9806 -2.2018
   17CHTO  C124 6796   4.354   5.492   1.128 -0.0140  0.5353  0.1615
   17CHTO   O83 6797   4.244   5.489   1.034  0.2494 -0.1804  0.6842
   17CHTO  H204 6798   4.269   5.446   0.954 -2.4293 -1.0881  0.2510
   17CHTO  C109 6799   4.442   5.478   1.363  0.3985 -0.3326 -0.0304
   17CHTO  H213 6800   4.522   5.414   1.323  0.5077 -1.2194  1.5555
   17CHTO  C110 6801   4.405   5.431   1.515  0.7714  0.3166  0.1060
   17CHTO  H214 6802   4.341   5.510   1.554  0.6270  0.3456 -0.1905
   17CHTO   O78 6803   4.523   5.434   1.592 -0.2447 -0.0831  0.6161
   17CHTO  H200 6804   4.509   5.432   1.685 -1.8703 -1.5504  0.3589
   17CHTO  C111 6805   4.314   5.300   1.513 -0.1703 -0.3751 -0.1007
   17CHTO  H215 6806   4.379   5.213   1.495 -1.0482 -1.0529  0.0214
   17CHTO   N19 6807   4.246   5.274   1.640  0.2776  0.3517  0.1147
   17CHTO  H207 6808   4.286   5.331   1.723  2.2572  1.9741 -1.9189
   17CHTO  H208 6809   4.142   5.299   1.629  0.8743  2.3827 -1.0753
   17CHTO   O74 6810   4.476   5.621   1.359 -0.6073 -0.0902  0.0077
   17CHTO  C115 6811   4.646   5.644   1.364  0.0529  0.1873 -0.6397
   17CHTO  H219 6812   4.676   5.709   1.447 -0.7731  1.7336 -1.5177
   17CHTO   O76 6813   4.718   5.514   1.392  0.3195  0.5553  0.6391
   17CHTO  C122 6814   4.860   5.529   1.393  0.6371 -0.5539  0.1902
   17CHTO  H226 6815   4.905   5.430   1.391 -0.6774 -1.1465 -1.3130
   17CHTO  C126 6816   4.902   5.595   1.524  1.0552 -0.1010 -0.0069
   17CHTO   O85 6817   4.893   5.500   1.636 -0.4778  0.7849 -0.2722
   17CHTO  H206 6818   4.871   5.542   1.717 -1.3085  1.1467 -0.6798
   17CHTO  C121 6819   4.917   5.590   1.266 -0.4486  0.3355  0.4115
   17CHTO  H225 6820   5.026   5.606   1.280 -0.2974  0.0498 -0.4253
   17CHTO   O81 6821   4.879   5.497   1.155 -0.6074 -0.4287 -0.7554
   17CHTO  H202 6822   4.841   5.543   1.083 -0.3101  0.4484 -0.3546
   17CHTO  C119 6823   4.847   5.730   1.231 -0.5756 -0.0381 -0.3235
   17CHTO  H223 6824   4.863   5.796   1.316  1.3218 -0.1883 -0.5238
   17CHTO  C117 6825   4.694   5.715   1.235  0.1864  0.0706 -0.2170
   17CHTO  H221 6826   4.666   5.661   1.145  0.5023 -0.2681 -0.1109
   17CHTO   N20 6827   4.617   5.851   1.220 -0.2590  0.9698  0.7250
   17CHTO  H209 6828   4.686   5.935   1.217 -2.0663  2.4209 -3.4241
   17CHTO  H210 6829   4.527   5.866   1.278 -1.3878  0.2244 -0.8162
   17CHTO   O80 6830   4.910   5.808   1.126 -0.3915  0.3095 -0.2246
   17CHTO  C103 6831   5.057   5.879   1.148  0.5701 -0.2145 -0.2489
   17CHTO  H190 6832   5.083   5.892   1.253  1.7089 -0.4553 -0.5020
   17CHTO  C101 6833   5.188   5.814   1.062 -0.4907  0.3478 -0.2941
   17CHTO  H188 6834   5.147   5.778   0.967  0.0561  0.8840 -0.7331
   17CHTO   O68 6835   5.232   5.683   1.149  0.0027 -0.8027  0.4390
   17CHTO  H168 6836   5.318   5.654   1.123 -0.3649  0.0742 -1.8600
   17CHTO   C99 6837   5.315   5.916   1.033 -0.3265  0.2411  0.0271
   17CHTO  H186 6838   5.376   5.930   1.125 -0.7180 -0.2349  0.3623
   17CHTO   N17 6839   5.413   5.857   0.926 -0.0988  0.3615 -0.1147
   17CHTO  H174 6840   5.438   5.919   0.841 -1.1754  1.9904  0.7296
   17CHTO  H175 6841   5.502   5.802   0.952  1.2844  1.5815 -2.1842
   17CHTO   C97 6842   5.260   6.052   0.993  0.0565  0.5435  0.2357
   17CHTO  H184 6843   5.206   6.045   0.897  0.3945 -1.1271  0.1604
   17CHTO   O64 6844   5.166   6.099   1.101  0.4006 -0.3163  0.0663
   17CHTO  C104 6845   5.041   6.031   1.090 -0.2673  0.4280 -0.2861
   17CHTO  H191 6846   5.003   6.029   0.988  1.2024 -0.2522 -0.8359
   17CHTO  C108 6847   4.933   6.106   1.177  0.1439 -0.2197  0.7642
   17CHTO   O71 6848   4.905   6.233   1.116  0.4381  0.3216 -0.1980
   17CHTO  H171 6849   4.959   6.299   1.158 -1.1692  0.8039  1.1672
   17CHTO   O62 6850   5.357   6.155   0.991  0.2471  0.1839  0.1675
   17CHTO   C91 6851   5.361   6.217   0.864  0.4240 -0.0652  0.2096
   17CHTO  H178 6852   5.365   6.136   0.791 -0.3911 -0.7409  0.9143
   17CHTO   C92 6853   5.493   6.290   0.845 -0.1049 -0.4506  0.3820
   17CHTO  H179 6854   5.578   6.220   0.855  0.2057  0.0143  1.0246
   17CHTO   O66 6855   5.502   6.321   0.709 -0.2389 -0.4059 -0.5543
   17CHTO  H166 6856   5.581   6.369   0.695  0.1845 -1.3127 -1.3335
   17CHTO   C93 6857   5.503   6.421   0.937 -0.8456 -0.0507  0.1871
   17CHTO  H180 6858   5.569   6.486   0.879 -0.8385  0.9635  1.3045
   17CHTO   N16 6859   5.575   6.402   1.059  0.3430  0.1495  0.7022
   17CHTO  H172 6860   5.680   6.389   1.037  0.3873  1.6820 -0.0611
   17CHTO  H173 6861   5.555   6.486   1.124  0.4092 -0.3968  1.4265
   17CHTO   C94 6862   5.366   6.481   0.952 -0.5303 -0.2481  0.2091
   17CHTO  H181 6863   5.316   6.451   1.045 -2.3038 -0.5205 -0.8135
   17CHTO   O61 6864   5.278   6.447   0.847 -0.8833 -0.5252  0.5305
   17CHTO   C95 6865   5.237   6.313   0.846 -0.2554  0.1523 -0.4534
   17CHTO  H182 6866   5.160   6.295   0.921  0.1501 -1.8316 -0.4674
   17CHTO  C106 6867   5.155   6.289   0.710  0.1561  0.0414 -0.4461
   17CHTO   O69 6868   5.206   6.356   0.596  0.4233 -0.0975 -0.0416
   17CHTO  H169 6869   5.294   6.337   0.573 -0.0017 -0.4007 -1.4846
   17CHTO   O63 6870   5.368   6.642   0.949  0.1763  0.3397 -0.2343
   17CHTO   C96 6871   5.289   6.707   1.072  0.4962  0.1831  0.8775
   17CHTO  H183 6872   5.298   6.644   1.160 -3.5572 -0.2495  1.0928
   17CHTO   C98 6873   5.144   6.726   1.030  0.2919  0.1425  0.4619
   17CHTO  H185 6874   5.149   6.781   0.934 -0.2504  2.5491  1.7655
   17CHTO   O67 6875   5.100   6.591   1.009  0.1843  0.1783 -0.1641
   17CHTO  H167 6876   5.014   6.595   0.971 -0.4747  0.5888  1.3345
   17CHTO  C102 6877   5.057   6.801   1.150  0.0422  0.0129 -0.0252
   17CHTO  H189 6878   5.042   6.721   1.225  0.5915  1.0952  1.2545
   17CHTO   N18 6879   4.921   6.845   1.103 -0.1441  0.2929  0.3921
   17CHTO  H176 6880   4.856   6.767   1.067  1.4388 -1.4980  1.3219
   17CHTO  H177 6881   4.932   6.923   1.028  0.4661  0.1708  0.3579
   17CHTO  C105 6882   5.134   6.917   1.211  0.1680 -0.0330  0.3035
   17CHTO  H192 6883   5.117   7.003   1.147 -2.1020 -0.2520  0.5915
   17CHTO   O65 6884   5.278   6.905   1.213 -0.6770  0.1263  0.3707
   17CHTO  C100 6885   5.344   6.849   1.103  0.3908 -0.2226 -0.0899
   17CHTO  H187 6886   5.324   6.916   1.017 -1.2134 -0.6850 -0.0821
   17CHTO  C107 6887   5.494   6.848   1.131  0.2742  0.0553  0.3838
   17CHTO   O70 6888   5.532   6.986   1.152 -0.0237 -0.2515  0.7360
   17CHTO  H170 6889   5.552   7.029   1.071  0.4381 -0.5260  0.7020
   17CHTO   O57 6890   5.069   6.932   1.358  0.2214  0.5732 -0.0394
   17CHTO   C85 6891   5.029   7.060   1.413  0.0052  0.1572  0.3126
   17CHTO  H157 6892   4.985   7.104   1.320 -1.1762  0.8340  1.1826
   17CHTO   C83 6893   5.163   7.146   1.447  0.3263 -0.1958 -0.1416
   17CHTO  H155 6894   5.214   7.163   1.352 -0.4199 -1.8749 -0.8738
   17CHTO   O56 6895   5.259   7.065   1.518  0.2537  0.3959  0.2416
   17CHTO  H135 6896   5.345   7.084   1.486  0.0662 -2.4969 -2.2562
   17CHTO   C81 6897   5.110   7.285   1.503 -0.4318  0.3306 -0.0469
   17CHTO  H153 6898   5.049   7.334   1.428 -0.7764 -0.7334 -0.4661
   17CHTO   N14 6899   5.217   7.386   1.528 -0.5066 -0.2773 -0.4768
   17CHTO  H141 6900   5.277   7.394   1.439 -0.5968  1.5230 -0.4016
   17CHTO  H142 6901   5.279   7.364   1.612  0.3439 -0.1049 -1.0517
   17CHTO   C79 6902   5.025   7.255   1.633  0.3392  0.9253  0.4859
   17CHTO  H151 6903   4.996   7.352   1.673 -0.1280  1.7886 -1.8457
   17CHTO   O52 6904   4.903   7.185   1.594  0.0664  0.3602 -0.4766
   17CHTO   C86 6905   4.920   7.053   1.533  0.7848 -0.2479  0.0762
   17CHTO  H158 6906   4.941   6.976   1.610  2.1218 -1.5106 -1.5025
   17CHTO   C90 6907   4.781   7.016   1.478 -1.2377 -0.1564 -0.2075
   17CHTO   O60 6908   4.774   6.883   1.417 -0.0750  0.6445  0.3853
   17CHTO  H138 6909   4.842   6.864   1.355  0.2620  1.8627  0.3689
   17CHTO   O50 6910   5.095   7.177   1.733  0.4661  0.7180  0.1978
   17CHTO   C73 6911   5.099   7.185   1.877  0.2340 -0.3050  0.3567
   17CHTO  H145 6912   5.096   7.292   1.902  2.5067 -0.5382  1.7427
   17CHTO   C74 6913   5.233   7.130   1.925 -0.5353  0.0775  0.7237
   17CHTO  H146 6914   5.307   7.180   1.860  1.1640 -2.7919  0.3500
   17CHTO   O54 6915   5.262   7.172   2.063  0.1590 -0.3920 -0.0009
   17CHTO  H133 6916   5.184   7.164   2.115 -0.4198 -2.7510 -1.1511
   17CHTO   C75 6917   5.229   6.973   1.895 -0.5896 -0.5703 -0.4471
   17CHTO  H147 6918   5.209   6.964   1.787 -0.7152  0.5809 -0.5258
   17CHTO   N13 6919   5.358   6.908   1.924  0.3813 -0.2856 -0.1385
   17CHTO  H139 6920   5.407   6.912   1.827 -0.1877 -0.8176 -0.4503
   17CHTO  H140 6921   5.426   6.974   1.977  0.0205  0.7808 -0.9933
   17CHTO   C76 6922   5.104   6.912   1.967 -0.6078 -0.2808 -0.1428
   17CHTO  H148 6923   5.126   6.922   2.073  0.7551  0.2603 -0.4531
   17CHTO   O49 6924   4.985   6.982   1.916  0.7051 -0.2115  0.3071
   17CHTO   C77 6925   4.982   7.118   1.953 -0.0956 -0.2045 -0.6041
   17CHTO  H149 6926   4.999   7.125   2.061 -0.1805  0.6341 -0.6384
   17CHTO   C88 6927   4.843   7.183   1.930  0.0211  0.1186 -0.1078
   17CHTO   O58 6928   4.837   7.312   1.977  0.0430 -0.3724 -0.2948
   17CHTO  H136 6929   4.753   7.334   2.011 -0.1848 -0.6363 -0.6789
   17CHTO   O51 6930   5.087   6.753   1.916 -0.7479 -0.0677 -0.5544
   17CHTO   C78 6931   4.965   6.687   1.979  0.1679 -0.1499  0.7752
   17CHTO  H150 6932   4.912   6.763   2.041 -1.5066 -0.5903 -0.1030
   17CHTO   C80 6933   4.995   6.569   2.076 -0.0028 -0.1930 -0.1314
   17CHTO  H152 6934   5.065   6.501   2.023 -0.4265 -0.8450  0.1503
   17CHTO   O55 6935   5.084   6.624   2.180  0.2512 -0.7758 -0.0900
   17CHTO  H134 6936   5.113   6.557   2.240  0.9859 -0.2006  0.1984
   17CHTO   C84 6937   4.872   6.481   2.121  0.4701 -0.2317 -0.0273
   17CHTO  H156 6938   4.817   6.545   2.189  1.3745  0.4866  0.0408
   17CHTO   N15 6939   4.917   6.363   2.208 -0.5040 -0.0307  0.5240
   17CHTO  H143 6940   4.976   6.390   2.294  3.3296  0.9310 -2.2433
   17CHTO  H144 6941   4.826   6.315   2.234  0.0730 -1.4101  0.0554
   17CHTO   C87 6942   4.787   6.441   2.001 -0.1882  0.9706 -0.2408
   17CHTO  H159 6943   4.843   6.362   1.952 -0.2887  0.7019  0.0678
   17CHTO   O53 6944   4.757   6.566   1.896  0.6385  0.0475 -0.1111
   17CHTO   C82 6945   4.869   6.643   1.862 -0.4081  0.3989  0.4720
   17CHTO  H154 6946   4.928   6.587   1.789 -1.5014  0.7241 -0.6756
   17CHTO   C89 6947   4.813   6.763   1.782 -0.6074 -0.4101 -0.5737
   17CHTO   O59 6948   4.715   6.732   1.689  0.3117 -0.3863  0.1281
   17CHTO  H137 6949   4.633   6.744   1.733  1.8662  4.5317  2.0104
   17CHTO   O45 6950   4.641   6.372   2.039  0.1798  0.3863  0.1980
   17CHTO   C67 6951   4.562   6.425   2.148  0.2003  0.1154  0.0636
   17CHTO  H124 6952   4.619   6.426   2.241 -1.6781 -0.7377  1.2563
   17CHTO   C65 6953   4.512   6.572   2.123  0.8648  0.1341  0.1303
   17CHTO  H122 6954   4.588   6.643   2.091 -0.1089  1.4021  0.5594
   17CHTO   O44 6955   4.456   6.622   2.241  0.1084 -0.3804 -0.3352
   17CHTO  H102 6956   4.484   6.709   2.260 -0.6999 -0.7498  2.7398
   17CHTO   C63 6957   4.408   6.564   2.003 -0.0095  0.1589  0.2255
   17CHTO  H120 6958   4.455   6.513   1.919  2.1709 -0.7282  1.9503
   17CHTO   N11 6959   4.389   6.695   1.943  0.1579  0.2645 -0.3204
   17CHTO  H108 6960   4.312   6.748   1.994 -0.2469 -2.2801  1.7944
   17CHTO  H109 6961   4.345   6.672   1.848 -0.2066 -2.0365  0.3667
   17CHTO   C61 6962   4.275   6.476   2.030 -0.2498 -0.2687  0.1454
   17CHTO  H118 6963   4.220   6.455   1.937  1.0897  0.9616 -0.9659
   17CHTO   O40 6964   4.309   6.342   2.090  0.6683 -0.1536 -0.1206
   17CHTO   C68 6965   4.433   6.331   2.171  0.1174 -0.1764 -0.3736
   17CHTO  H125 6966   4.471   6.228   2.153  1.3457  0.3829 -1.0580
   17CHTO   C72 6967   4.396   6.334   2.323 -0.0418  0.3591  0.0064
   17CHTO   O48 6968   4.334   6.220   2.379  0.0579 -0.0318 -0.6141
   17CHTO  H105 6969   4.277   6.173   2.321  0.0442 -0.7071 -0.0706
   17CHTO   O38 6970   4.188   6.545   2.120  0.6596  0.4009 -0.0114
   17CHTO   C55 6971   4.048   6.510   2.116 -0.3849 -0.9244 -0.3047
   17CHTO  H112 6972   4.012   6.548   2.212  0.0653 -1.5970  0.1294
   17CHTO   C56 6973   4.013   6.359   2.099 -0.1485  0.9742 -0.1451
   17CHTO  H113 6974   4.060   6.319   2.007  0.2403 -1.9202  1.2638
   17CHTO   O42 6975   4.064   6.294   2.216  0.4617 -0.0035  0.2130
   17CHTO  H100 6976   4.156   6.313   2.222  0.9190 -1.7964 -0.7964
   17CHTO   C57 6977   3.859   6.337   2.096  0.2593 -0.5095  0.1582
   17CHTO  H114 6978   3.812   6.374   2.187 -1.3592 -0.5788 -0.6244
   17CHTO   N10 6979   3.807   6.197   2.081 -0.7395  0.5307 -0.1026
   17CHTO  H106 6980   3.714   6.202   2.027 -0.0420  2.5905 -1.1588
   17CHTO  H107 6981   3.881   6.139   2.028  0.8814 -0.9213  3.5418
   17CHTO   C58 6982   3.808   6.412   1.969  0.0061 -0.1473  0.3439
   17CHTO  H115 6983   3.861   6.362   1.885  0.9659  0.7955  0.3921
   17CHTO   O37 6984   3.850   6.548   1.985 -0.1863 -0.0834  0.4058
   17CHTO   C59 6985   3.984   6.587   2.005 -0.3920  0.5570  0.2204
   17CHTO  H116 6986   4.039   6.577   1.912 -0.6993 -0.3179  0.1282
   17CHTO   C70 6987   3.973   6.737   2.033 -0.0424 -0.4614  0.2807
   17CHTO   O46 6988   3.955   6.817   1.914 -0.2630 -0.1006 -0.2465
   17CHTO  H103 6989   4.007   6.894   1.909 -2.1690  1.1201 -2.0904
   17CHTO   O39 6990   3.640   6.396   1.942  0.2423 -0.1147 -0.1247
   17CHTO   C60 6991   3.572   6.497   2.009  0.0842  0.6324  0.3854
   17CHTO  H117 6992   3.605   6.518   2.111 -0.5773  0.5268  0.6209
   17CHTO   C62 6993   3.561   6.633   1.929  0.6174  0.1374 -0.4627
   17CHTO  H119 6994   3.663   6.670   1.904  0.5846 -0.1130 -0.9706
   17CHTO   O43 6995   3.494   6.618   1.803 -0.0587 -0.0439  0.1319
   17CHTO  H101 6996   3.551   6.583   1.738  2.3084  0.8899  1.6389
   17CHTO   C66 6997   3.498   6.751   2.022 -0.1226 -0.0557  0.8389
   17CHTO  H123 6998   3.555   6.758   2.115 -1.2531  2.1567  1.3877
   17CHTO   N12 6999   3.500   6.880   1.943 -0.4213  0.2957  0.4562
   17CHTO  H110 7000   3.512   6.973   1.996  2.0241 -0.3886  1.1468
   17CHTO  H111 7001   3.403   6.873   1.895  0.4066 -1.9807 -0.9739
   17CHTO   C69 7002   3.353   6.720   2.063  0.3952  0.6301  0.2063
   17CHTO  H126 7003   3.282   6.742   1.980  1.7459 -0.2621 -1.2056
   17CHTO   O41 7004   3.354   6.575   2.117  0.3924 -0.6647  0.8924
   17CHTO   C64 7005   3.422   6.465   2.020 -0.1613  1.0529  0.1269
   17CHTO  H121 7006   3.376   6.451   1.920  1.0830 -1.2191 -0.1637
   17CHTO   C71 7007   3.404   6.322   2.078 -0.2732  0.5686  0.0772
   17CHTO   O47 7008   3.270   6.278   2.081  0.4342  0.1732  0.3836
   17CHTO  H104 7009   3.268   6.185   2.088  2.4194  0.0385 -0.4593
   17CHTO   O34 7010   3.296   6.812   2.167 -0.0681  0.4251 -0.3834
   17CHTO   C49 7011   3.195   6.923   2.176  0.6536  1.0542  0.6407
   17CHTO   H91 7012   3.228   7.007   2.115 -1.5909  1.1757 -0.4561
   17CHTO   C47 7013   3.189   6.961   2.328 -0.2256 -0.4439  0.2843
   17CHTO   H89 7014   3.126   7.052   2.331  0.8267  0.3105 -0.5353
   17CHTO   O33 7015   3.317   6.999   2.378 -0.1447  0.0056  0.2088
   17CHTO   H70 7016   3.343   7.076   2.332 -0.9095 -0.6526 -1.3450
   17CHTO   C45 7017   3.124   6.849   2.424 -0.4398 -0.1872 -0.4068
   17CHTO   H87 7018   3.205   6.792   2.473  0.5835  3.4724  2.3116
   17CHTO    N8 7019   3.037   6.903   2.534  0.1123 -0.6855 -0.2533
   17CHTO   H75 7020   3.025   7.007   2.509  2.2840 -0.5348 -0.7655
   17CHTO   H76 7021   3.082   6.881   2.630 -2.7797 -1.0219  1.0542
   17CHTO   C43 7022   3.048   6.734   2.339  1.1583  0.5097 -0.9098
   17CHTO   H85 7023   3.125   6.666   2.302  1.0760 -1.1005  1.7413
   17CHTO   O29 7024   2.978   6.800   2.233  0.2358 -0.5144  0.0562
   17CHTO   C50 7025   3.056   6.874   2.133  0.6434  0.2170  0.5117
   17CHTO   H92 7026   3.072   6.808   2.047  0.1908  2.1041 -1.0747
   17CHTO   C54 7027   2.967   6.998   2.085  0.0084 -0.1663  0.1777
   17CHTO   O36 7028   2.911   7.086   2.185 -0.7959 -0.1418 -0.4068
   17CHTO   H72 7029   2.975   7.125   2.241 -0.0067 -3.4707  1.1192
   17CHTO   O27 7030   2.964   6.652   2.420  0.0629 -0.7074 -0.1418
   17CHTO   C37 7031   2.956   6.507   2.396 -0.4119 -0.0923 -0.2575
   17CHTO   H79 7032   2.889   6.460   2.469 -1.0156 -0.7247 -1.2181
   17CHTO   C38 7033   2.888   6.478   2.256 -0.0749 -0.6334  0.1817
   17CHTO   H80 7034   2.962   6.510   2.181  1.5734 -3.2471  0.6087
   17CHTO   O31 7035   2.769   6.550   2.242  0.0726 -0.5349 -0.0516
   17CHTO   H68 7036   2.759   6.571   2.151  1.4977 -0.7523 -0.2631
   17CHTO   C39 7037   2.863   6.322   2.245 -0.5586 -0.2137  0.2429
   17CHTO   H81 7038   2.785   6.307   2.320 -1.8517  0.7373 -0.8883
   17CHTO    N7 7039   2.795   6.284   2.115  0.3457  0.0171 -0.0269
   17CHTO   H73 7040   2.700   6.238   2.138 -0.0602  0.7660 -0.1976
   17CHTO   H74 7041   2.797   6.371   2.050  1.6606 -1.5928 -2.2051
   17CHTO   C40 7042   2.991   6.247   2.270 -0.3976 -0.0494 -0.3388
   17CHTO   H82 7043   3.053   6.262   2.182 -1.1011 -0.6207 -0.9271
   17CHTO   O26 7044   3.055   6.295   2.393 -0.0081 -0.0582  0.2652
   17CHTO   C41 7045   3.089   6.433   2.396  0.1709 -0.0273  0.5451
   17CHTO   H83 7046   3.155   6.461   2.313  1.0580  1.3695  1.6959
   17CHTO   C52 7047   3.182   6.457   2.513  0.3231  0.3440 -0.3747
   17CHTO   O35 7048   3.142   6.417   2.644  0.2202 -0.5496 -0.3347
   17CHTO   H71 7049   3.218   6.413   2.699 -1.2322 -2.4103  1.5791
   17CHTO   O28 7050   2.972   6.106   2.294 -0.5876 -0.0399 -0.5412
   17CHTO   C42 7051   3.078   6.009   2.279  0.1423 -0.1989  0.1105
   17CHTO   H84 7052   3.040   5.918   2.327 -2.5057 -0.5735 -2.5505
   17CHTO   C44 7053   3.225   6.040   2.338  0.9701  0.7042 -1.0328
   17CHTO   H86 7054   3.258   6.133   2.293  1.8145  0.3086 -1.2465
   17CHTO   O32 7055   3.222   6.056   2.483 -0.3052  0.1088  0.4142
   17CHTO   H69 7056   3.146   6.104   2.509  0.3565  0.5656  1.5267
   17CHTO   C48 7057   3.338   5.942   2.292  0.9375  0.1520  0.1905
   17CHTO   H90 7058   3.317   5.852   2.349 -2.1631  0.4778 -0.3250
   17CHTO    N9 7059   3.478   5.969   2.330  0.2900 -0.4285  0.1343
   17CHTO   H77 7060   3.492   5.961   2.437  1.0735  1.5983  0.2099
   17CHTO   H78 7061   3.504   6.063   2.283 -2.3833  0.6491  0.7140
   17CHTO   C51 7062   3.326   5.905   2.138 -0.7863 -0.0343 -0.0510
   17CHTO   H93 7063   3.361   5.992   2.083  2.2798  0.5361  2.6556
   17CHTO   O30 7064   3.191   5.864   2.111 -0.0960 -0.7648  0.2933
   17CHTO   C46 7065   3.094   5.969   2.130  0.1798 -0.6953 -0.2902
   17CHTO   H88 7066   3.135   6.056   2.079 -0.5494  0.2555  0.7313
   17CHTO   C53 7067   2.958   5.918   2.074  0.0975 -0.1419  0.0720
   17CHTO   O72 7068   2.945   5.937   1.934  0.5512 -0.0613 -0.4002
   17CHTO  H199 7069   2.977   6.024   1.914  3.5209 -1.4922 -2.2834
   17CHTO   O22 7070   3.399   5.790   2.096 -0.1599 -0.0160 -0.2569
   17CHTO   C31 7071   3.450   5.786   1.965 -0.3160  0.0745  0.2590
   17CHTO   H59 7072   3.464   5.678   1.943 -2.4425  0.0216 -0.9756
   17CHTO   C29 7073   3.361   5.838   1.844  0.1065  0.6511  0.4727
   17CHTO   H57 7074   3.309   5.927   1.883  0.0222  0.6801  0.2936
   17CHTO   O21 7075   3.263   5.726   1.835  0.5949 -0.1657  0.2619
   17CHTO   H37 7076   3.179   5.751   1.801  1.5776  0.1661 -2.0635
   17CHTO   C27 7077   3.428   5.874   1.706  0.0277  0.1591  0.1975
   17CHTO   H55 7078   3.459   5.781   1.657 -0.7749  0.1864 -0.3910
   17CHTO    N5 7079   3.335   5.942   1.610  0.7348 -0.2128 -0.0702
   17CHTO   H43 7080   3.380   5.998   1.529 -0.8904  0.1618 -0.7515
   17CHTO   H44 7081   3.253   5.877   1.583  1.8350 -1.7910  0.3960
   17CHTO   C25 7082   3.564   5.952   1.733  0.0371  0.1720  0.5136
   17CHTO   H53 7083   3.538   6.051   1.774 -0.3718  0.2381  0.0971
   17CHTO   O17 7084   3.646   5.869   1.829  0.3013  0.3590  0.1027
   17CHTO   C32 7085   3.587   5.855   1.964 -0.1796  0.3345 -0.3503
   17CHTO   H60 7086   3.573   5.949   2.016  2.0036 -0.8275  2.4598
   17CHTO   C36 7087   3.688   5.772   2.050  0.6716 -0.1215  0.3842
   17CHTO   O25 7088   3.753   5.666   1.978  0.4640 -0.0781 -0.3596
   17CHTO   H40 7089   3.816   5.623   2.032  1.3367  1.1409 -0.3989
   17CHTO   O15 7090   3.652   5.975   1.619  0.1901  0.5515  0.5272
   17CHTO   C19 7091   3.714   6.096   1.569 -0.5403 -0.0018 -0.7504
   17CHTO   H47 7092   3.787   6.054   1.498  1.2162  0.6859  0.5894
   17CHTO   C20 7093   3.617   6.190   1.488 -0.5374  0.2342 -0.1542
   17CHTO   H48 7094   3.543   6.237   1.554 -1.2522 -0.4677 -0.4532
   17CHTO   O19 7095   3.553   6.108   1.390  0.3426  0.8462  0.4276
   17CHTO   H35 7096   3.516   6.157   1.320 -1.0399 -1.6675 -0.6982
   17CHTO   C21 7097   3.698   6.309   1.417  0.8548  0.3432  0.4382
   17CHTO   H49 7098   3.770   6.273   1.343  0.1326  0.3327 -0.2772
   17CHTO    N4 7099   3.620   6.413   1.337  0.2825 -0.4570 -0.3532
   17CHTO   H41 7100   3.554   6.466   1.404  0.0626 -0.9094 -0.2064
   17CHTO   H42 7101   3.554   6.358   1.272 -1.9727  1.0308  0.6293
   17CHTO   C22 7102   3.787   6.367   1.526 -0.8706 -0.4924 -0.1197
   17CHTO   H50 7103   3.715   6.402   1.600  1.5246  0.2600  1.9306
   17CHTO   O14 7104   3.873   6.272   1.588  0.1561 -0.0219 -0.0908
   17CHTO   C23 7105   3.804   6.175   1.669 -0.2907 -0.2641  0.2096
   17CHTO   H51 7106   3.746   6.228   1.746  0.7421  2.3567 -0.7487
   17CHTO   C34 7107   3.905   6.079   1.729 -0.1948 -0.1892 -0.0411
   17CHTO   O23 7108   4.007   6.142   1.804 -0.1089 -0.0320 -0.3181
   17CHTO   H38 7109   4.077   6.079   1.812 -0.0123  0.3644  2.7895
   17CHTO   O16 7110   3.869   6.475   1.482 -0.7951 -0.1845  0.1502
   17CHTO   C24 7111   3.881   6.601   1.576 -0.6200  0.1853 -0.4119
   17CHTO   H52 7112   3.869   6.573   1.680 -2.2066 -0.7049 -0.8261
   17CHTO   C26 7113   3.782   6.707   1.534  0.3199  0.4713  0.3039
   17CHTO   H54 7114   3.792   6.722   1.425 -0.2645  0.9553  0.3106
   17CHTO   O20 7115   3.653   6.649   1.556 -0.3820  0.2179 -0.4499
   17CHTO   H36 7116   3.624   6.579   1.501 -0.4436  0.1540 -0.3349
   17CHTO   C30 7117   3.804   6.832   1.613 -0.1995 -0.2797 -0.1962
   17CHTO   H58 7118   3.772   6.813   1.716  0.3754  1.7871  0.3950
   17CHTO    N6 7119   3.711   6.940   1.564  0.4122 -0.2035  0.2556
   17CHTO   H45 7120   3.609   6.903   1.568 -0.1858  1.2738 -1.0954
   17CHTO   H46 7121   3.724   7.023   1.632  4.2032  0.8892 -1.7064
   17CHTO   C33 7122   3.954   6.881   1.601 -0.1977 -0.3012  0.6259
   17CHTO   H61 7123   3.971   6.911   1.496  0.0029  0.5225  0.8976
   17CHTO   O18 7124   4.038   6.766   1.634  0.1635  0.4523  0.8362
   17CHTO   C28 7125   4.027   6.649   1.562  0.5984 -0.0014  0.0840
   17CHTO   H56 7126   4.053   6.666   1.457  0.3342 -0.9708 -0.1460
   17CHTO   C35 7127   4.132   6.552   1.615 -0.7409 -0.0761  0.4270
   17CHTO   O24 7128   4.263   6.581   1.568  0.2943  0.2500  0.3956
   17CHTO   H39 7129   4.270   6.554   1.479  1.2388  1.3101  0.1390
   17CHTO    O9 7130   3.977   6.992   1.684 -0.3164  0.0231 -0.2526
   17CHTO   C13 7131   4.124   7.070   1.645 -0.2259  0.8746 -0.1517
   17CHTO   H26 7132   4.135   7.088   1.537 -0.5478  1.7620 -0.0351
   17CHTO   C11 7133   4.242   6.982   1.702  0.3417  0.8164 -0.1992
   17CHTO   H24 7134   4.253   6.890   1.642 -0.4507 -1.2240  2.7010
   17CHTO    O8 7135   4.219   6.948   1.838  0.4263  0.1849  0.4075
   17CHTO    H3 7136   4.129   6.926   1.851  0.1552 -0.4062 -2.2462
   17CHTO    C9 7137   4.375   7.057   1.680 -0.2900 -0.0027  0.2027
   17CHTO   H22 7138   4.395   7.055   1.572  2.9907 -0.8914  0.7380
   17CHTO    N2 7139   4.496   6.991   1.731  0.0139  0.4304 -0.6898
   17CHTO   H10 7140   4.509   6.889   1.700 -1.5205  0.0807 -0.2206
   17CHTO   H11 7141   4.509   6.995   1.838 -3.3653 -2.0818 -0.0965
   17CHTO    C7 7142   4.375   7.208   1.724  1.2211  0.2046 -0.4235
   17CHTO   H20 7143   4.383   7.264   1.629  0.8460  0.9883  0.0000
   17CHTO    O4 7144   4.250   7.243   1.787  0.0506 -0.7535 -0.2085
   17CHTO   C14 7145   4.138   7.220   1.697 -0.1671  1.2576  0.3353
   17CHTO   H27 7146   4.166   7.296   1.622  0.9057  1.1793  0.6405
   17CHTO   C18 7147   4.010   7.271   1.775 -0.3439  0.1069  0.4514
   17CHTO   O13 7148   3.984   7.410   1.767 -0.1419  0.1738  0.3573
   17CHTO    H7 7149   3.939   7.441   1.843 -0.0794 -1.4187  1.0731
   17CHTO    O2 7150   4.499   7.266   1.813 -0.4175 -0.1559  0.1627
   17CHTO    C1 7151   4.494   7.404   1.840 -0.3076 -0.4584  0.3575
   17CHTO   H14 7152   4.402   7.447   1.795 -1.0557 -1.2778  1.0654
   17CHTO    C2 7153   4.621   7.479   1.773  0.1616 -0.4919  0.2847
   17CHTO   H15 7154   4.705   7.409   1.783  0.9670  0.5493  0.9117
   17CHTO    O6 7155   4.606   7.493   1.632 -0.0222 -0.0173  0.0971
   17CHTO    H1 7156   4.628   7.417   1.581 -1.2101  0.2942 -0.8743
   17CHTO    C3 7157   4.642   7.618   1.837 -0.0230  0.5920  0.2695
   17CHTO   H16 7158   4.560   7.679   1.796  0.5081  0.5137 -0.9291
   17CHTO    N1 7159   4.766   7.694   1.800 -0.3514 -0.3245 -0.3662
   17CHTO    H8 7160   4.767   7.793   1.842  2.8295  0.0883 -1.3124
   17CHTO    H9 7161   4.778   7.688   1.693  3.0583 -0.0110 -0.0332
   17CHTO    C4 7162   4.622   7.618   1.990  0.0914  0.5478  0.1767
   17CHTO   H17 7163   4.711   7.583   2.042  0.1644  1.5783  0.7488
   17CHTO    O1 7164   4.498   7.554   2.031  0.6991  0.4655  0.2041
   17CHTO    C5 7165   4.492   7.421   1.993  1.0170  0.4697 -0.2141
   17CHTO   H18 7166   4.578   7.368   2.034  2.9526  3.4831 -0.2191
   17CHTO   C16 7167   4.356   7.355   2.046  0.3140 -0.4474 -0.5286
   17CHTO   O11 7168   4.368   7.323   2.187 -0.1667 -0.1243  0.3341
   17CHTO    H5 7169   4.360   7.402   2.236  2.9273 -0.7176  1.8908
   17CHTO    O3 7170   4.597   7.759   2.033  0.1034  0.3034  0.2598
   17CHTO    C6 7171   4.649   7.805   2.165  0.7571 -0.0155 -0.7680
   17CHTO   H19 7172   4.595   7.891   2.202  2.4096  1.2587 -1.2537
   17CHTO    C8 7173   4.623   7.700   2.285  0.0576  0.2417  0.8165
   17CHTO   H21 7174   4.661   7.604   2.250 -0.9577 -0.3821  1.3708
   17CHTO    O7 7175   4.481   7.677   2.306 -0.7979 -0.0946  0.1741
   17CHTO    H2 7176   4.437   7.758   2.324 -0.3287  0.1827  0.0943
   17CHTO   C12 7177   4.694   7.758   2.426 -0.3746  0.1120 -0.0590
   17CHTO   H25 7178   4.644   7.849   2.464 -1.2653  0.6495 -2.4248
   17CHTO    N3 7179   4.689   7.654   2.534  0.3887 -0.1356 -0.0721
   17CHTO   H12 7180   4.604   7.591   2.513 -0.9125  1.2894  0.7344
   17CHTO   H13 7181   4.774   7.588   2.534 -0.7669 -1.6543 -0.0158
   17CHTO   C15 7182   4.837   7.800   2.387  0.2355 -0.3188  0.8004
   17CHTO   H28 7183   4.903   7.717   2.359 -0.4627 -1.0478  1.2955
   17CHTO   O10 7184   4.900   7.897   2.521  0.6473  0.4499  0.3769
   17CHTO    H4 7185   4.964   7.846   2.567 -0.5901 -1.0882  0.4232
   17CHTO    O5 7186   4.836   7.893   2.283 -0.0931  0.2799 -0.0997
   17CHTO   C10 7187   4.799   7.841   2.153  0.1402  0.0255  0.1595
   17CHTO   H23 7188   4.867   7.759   2.129  0.2649  0.4491 -0.9617
   17CHTO   C17 7189   4.820   7.953   2.053 -0.4827  0.2546 -0.1789
   17CHTO   O12 7190   4.959   7.984   2.035  0.2649 -1.0747  0.1529
   17CHTO    H6 7191   4.967   8.063   2.084 -0.3627 -2.3547  2.4068
   18CHTO  H203 7192   6.162   7.540   2.565  0.9872  2.4817 -2.1339
   18CHTO   O82 7193   6.193   7.462   2.523 -0.0931  0.1662  1.0948
   18CHTO  C123 7194   6.133   7.451   2.392 -0.1586 -1.1099  0.3119
   18CHTO  H227 7195   6.055   7.528   2.384  1.8632  0.8859 -1.0160
   18CHTO   O77 7196   6.225   7.488   2.286 -0.4208 -0.0797  0.1810
   18CHTO  C118 7197   6.171   7.489   2.151  0.4204 -0.4872  0.2657
   18CHTO  H222 7198   6.082   7.554   2.158 -0.8265 -2.3153  1.7262
   18CHTO  C125 7199   6.269   7.552   2.053 -0.0603 -0.5594  0.4303
   18CHTO   O84 7200   6.342   7.653   2.110 -0.0699  0.3874  0.3739
   18CHTO  H205 7201   6.286   7.727   2.120  1.4803  1.4663  1.1176
   18CHTO  C114 7202   6.132   7.347   2.113  0.1836 -0.0853 -0.0631
   18CHTO  H218 7203   6.222   7.286   2.125  1.1429  1.3674  0.2797
   18CHTO  C116 7204   6.020   7.300   2.203  0.5170 -0.1123  0.1113
   18CHTO  H220 7205   5.926   7.356   2.182 -0.6896 -2.1756 -0.0604
   18CHTO   O79 7206   5.989   7.166   2.165 -0.2322 -0.0491 -0.2038
   18CHTO  H201 7207   5.943   7.122   2.234  1.0067 -0.8587  0.1353
   18CHTO  C120 7208   6.067   7.309   2.357  0.9086  0.1645  0.1499
   18CHTO  H224 7209   6.130   7.219   2.373  0.7164  0.2316  1.3323
   18CHTO   N21 7210   5.960   7.274   2.457 -0.4655 -0.8085 -0.6490
   18CHTO  H211 7211   5.867   7.297   2.406 -0.7878 -0.4609  0.1012
   18CHTO  H212 7212   5.976   7.318   2.554 -0.4098 -3.4914  0.6036
   18CHTO   O75 7213   6.083   7.352   1.974  0.4498 -0.0090 -0.2636
   18CHTO  C112 7214   6.170   7.284   1.850  0.8357 -0.4067 -0.0716
   18CHTO  H216 7215   6.232   7.206   1.896  0.9451  0.2225  0.8452
   18CHTO   O73 7216   6.251   7.384   1.784  0.2933  0.3979  0.0652
   18CHTO  C113 7217   6.337   7.338   1.673  0.0384 -0.5559  0.5195
   18CHTO  H217 7218   6.397   7.251   1.705 -1.9401 -1.7825  1.0062
   18CHTO  C124 7219   6.435   7.456   1.643  0.0871 -0.5256  0.2420
   18CHTO   O83 7220   6.519   7.474   1.755  0.4562  0.3231  0.4637
   18CHTO  H204 7221   6.511   7.564   1.780  2.4311  0.3824  0.9485
   18CHTO  C109 7222   6.246   7.300   1.555 -0.3187  0.1282 -0.5881
   18CHTO  H213 7223   6.195   7.393   1.526 -1.9408  0.0734  1.9794
   18CHTO  C110 7224   6.150   7.189   1.604 -0.3556 -0.4108  1.0132
   18CHTO  H214 7225   6.208   7.098   1.613  2.9276  1.3477 -1.3315
   18CHTO   O78 7226   6.051   7.169   1.505  0.4210 -0.2396 -0.0453
   18CHTO  H200 7227   6.012   7.254   1.493 -0.2305 -0.3820  0.9815
   18CHTO  C111 7228   6.077   7.229   1.737  0.2665  0.7582  0.4072
   18CHTO  H215 7229   6.007   7.309   1.711  1.7603  1.3797 -1.7775
   18CHTO   N19 7230   5.997   7.115   1.792 -0.4898 -0.3602  0.0882
   18CHTO  H207 7231   6.057   7.042   1.843 -0.5539 -2.1203 -2.2834
   18CHTO  H208 7232   5.938   7.064   1.717 -1.8195 -1.2083  1.6732
   18CHTO   O74 7233   6.329   7.246   1.439  0.3244  0.3597 -0.1986
   18CHTO  C115 7234   6.256   7.267   1.294 -0.2422 -0.1229  0.3385
   18CHTO  H219 7235   6.163   7.210   1.287  1.2399 -2.5777  0.3490
   18CHTO   O76 7236   6.212   7.431   1.272  0.1249 -0.6516 -0.1741
   18CHTO  C122 7237   6.310   7.532   1.256 -0.6000 -0.2991  0.1883
   18CHTO  H226 7238   6.344   7.573   1.351  0.8304 -0.4824 -0.2379
   18CHTO  C126 7239   6.237   7.649   1.178  0.6127  0.3352  0.3884
   18CHTO   O85 7240   6.315   7.763   1.129  0.3176 -0.5038  0.4574
   18CHTO  H206 7241   6.406   7.742   1.134  0.3306 -0.4202  0.5795
   18CHTO  C121 7242   6.438   7.481   1.186 -0.5174  0.7836  0.4856
   18CHTO  H225 7243   6.484   7.559   1.122 -0.5209  2.1200  2.0808
   18CHTO   O81 7244   6.539   7.465   1.290 -0.4233  0.4606 -0.4810
   18CHTO  H202 7245   6.528   7.527   1.359 -1.1480  1.3690 -1.3987
   18CHTO  C119 7246   6.397   7.352   1.098 -0.1488  0.6873 -0.3391
   18CHTO  H223 7247   6.303   7.372   1.047 -0.6719  0.2152  0.4237
   18CHTO  C117 7248   6.360   7.225   1.184  0.1418  0.0346 -0.5815
   18CHTO  H221 7249   6.440   7.186   1.247 -2.6043 -0.7626  2.5478
   18CHTO   N20 7250   6.311   7.101   1.108  1.3182 -0.4995  0.3206
   18CHTO  H209 7251   6.206   7.105   1.084  1.3476 -0.1946  0.2493
   18CHTO  H210 7252   6.372   7.078   1.022  1.2062 -2.5876  0.7706
   18CHTO   O80 7253   6.494   7.339   0.984  0.2050  0.3215  0.2634
   18CHTO  C103 7254   6.450   7.364   0.823  0.3957 -0.0101 -0.4601
   18CHTO  H190 7255   6.541   7.365   0.764 -0.0610  0.4553 -1.1671
   18CHTO  C101 7256   6.345   7.265   0.777 -0.4508 -0.1084  0.8613
   18CHTO  H188 7257   6.264   7.252   0.849 -1.3899 -1.8401 -0.4842
   18CHTO   O68 7258   6.414   7.150   0.772  0.2199  0.0962  0.0010
   18CHTO  H168 7259   6.460   7.140   0.690  1.6291 -0.1537  0.8077
   18CHTO   C99 7260   6.287   7.312   0.631 -1.0650  0.2537 -0.2131
   18CHTO  H186 7261   6.374   7.331   0.565 -2.7247 -3.7997 -3.7973
   18CHTO   N17 7262   6.198   7.211   0.568  0.0821 -0.3224  0.1985
   18CHTO  H174 7263   6.272   7.159   0.508 -0.2663 -1.1477  0.4740
   18CHTO  H175 7264   6.157   7.150   0.647 -0.3526  0.6650  0.7329
   18CHTO   C97 7265   6.215   7.444   0.653  0.6890 -0.0231  0.1653
   18CHTO  H184 7266   6.133   7.421   0.722 -0.9884  1.1413 -1.3750
   18CHTO   O64 7267   6.313   7.544   0.703  0.5989  0.6021  0.1512
   18CHTO  C104 7268   6.398   7.516   0.816  0.0966  0.1156 -0.3991
   18CHTO  H191 7269   6.348   7.535   0.910  0.8807 -1.9231  0.4579
   18CHTO  C108 7270   6.518   7.614   0.815  0.1029  0.2730  0.0482
   18CHTO   O71 7271   6.594   7.604   0.695 -0.0571 -0.1802  0.2930
   18CHTO  H171 7272   6.682   7.622   0.721  0.5655 -0.1207 -1.7377
   18CHTO   O62 7273   6.160   7.501   0.526 -0.4890  0.1368 -0.0814
   18CHTO   C91 7274   6.034   7.571   0.550  0.2570  0.3928 -0.5601
   18CHTO  H178 7275   6.030   7.596   0.656  1.7360  0.1653 -0.4384
   18CHTO   C92 7276   5.912   7.479   0.517  0.1310  0.2968  0.1195
   18CHTO  H179 7277   5.914   7.446   0.412 -1.4603  1.8332 -0.4340
   18CHTO   O66 7278   5.912   7.360   0.600 -1.0643 -0.3762  0.3313
   18CHTO  H166 7279   5.925   7.373   0.692  4.2771  0.9530 -0.4484
   18CHTO   C93 7280   5.778   7.550   0.544  0.2659 -0.8326 -0.2942
   18CHTO  H180 7281   5.763   7.568   0.652  0.4808  1.8686 -0.6654
   18CHTO   N16 7282   5.657   7.472   0.504  0.1665  0.3226 -0.0309
   18CHTO  H172 7283   5.607   7.532   0.429  0.6382  0.4374 -0.2548
   18CHTO  H173 7284   5.595   7.458   0.591 -0.7686  3.3402 -0.1538
   18CHTO   C94 7285   5.777   7.691   0.483  0.5378  0.0298 -0.6726
   18CHTO  H181 7286   5.773   7.687   0.374  0.4063  0.6180 -0.6885
   18CHTO   O61 7287   5.893   7.763   0.516  0.8005 -0.1246 -0.4666
   18CHTO   C95 7288   6.016   7.704   0.463  0.1483  0.1368  0.6454
   18CHTO  H182 7289   6.014   7.688   0.355 -0.8384  1.9610  0.3684
   18CHTO  C106 7290   6.134   7.805   0.483  0.0731 -0.0688  0.0073
   18CHTO   O69 7291   6.262   7.756   0.433  0.3586 -0.1629 -0.0043
   18CHTO  H169 7292   6.334   7.791   0.482 -1.7034  0.3816  2.7327
   18CHTO   O63 7293   5.658   7.776   0.536  0.0382  0.1432 -0.7601
   18CHTO   C96 7294   5.603   7.880   0.459  0.1047 -0.8928  0.0632
   18CHTO  H183 7295   5.619   7.848   0.356 -1.7666  0.1730 -0.5729
   18CHTO   C98 7296   5.672   8.023   0.483  0.6002 -0.1640 -0.4585
   18CHTO  H185 7297   5.700   8.020   0.589 -1.2250 -0.4226  0.0320
   18CHTO   O67 7298   5.796   8.021   0.403  0.4077  0.2642  0.2444
   18CHTO  H167 7299   5.868   7.997   0.458  0.9236 -0.8797 -0.9242
   18CHTO  C102 7300   5.580   8.151   0.444 -0.2609 -0.0119  0.1339
   18CHTO  H189 7301   5.584   8.153   0.334  1.6854  2.3679  0.1836
   18CHTO   N18 7302   5.629   8.279   0.494 -0.1770 -0.2360  0.5276
   18CHTO  H176 7303   5.682   8.275   0.588 -1.2850  2.2154  1.2996
   18CHTO  H177 7304   5.551   8.354   0.489  0.7404  0.6361 -1.0690
   18CHTO  C105 7305   5.427   8.131   0.479  0.0481  0.2785  0.2074
   18CHTO  H192 7306   5.409   8.136   0.586  0.9476 -0.7547  0.4197
   18CHTO   O65 7307   5.382   7.996   0.449 -0.2812 -0.5197 -0.2250
   18CHTO  C100 7308   5.448   7.883   0.500 -0.6335  0.5075  0.2967
   18CHTO  H187 7309   5.437   7.889   0.609 -1.2708  1.0352  0.2121
   18CHTO  C107 7310   5.362   7.758   0.453  1.0439  0.5564 -0.2168
   18CHTO   O70 7311   5.407   7.702   0.325 -0.9853 -0.3915  0.1258
   18CHTO  H170 7312   5.361   7.740   0.253 -0.8302 -1.3518 -0.4902
   18CHTO   O57 7313   5.329   8.226   0.383  0.1904 -0.1105  0.2878
   18CHTO   C85 7314   5.180   8.231   0.388 -0.6482 -0.0354 -0.5273
   18CHTO  H157 7315   5.149   8.297   0.304  0.5550  0.0746 -0.8934
   18CHTO   C83 7316   5.140   8.305   0.515  0.2869  0.4755 -0.1451
   18CHTO  H155 7317   5.184   8.404   0.505 -1.4044  1.3409  0.7020
   18CHTO   O56 7318   5.194   8.252   0.641  0.3772 -0.5033 -0.0010
   18CHTO  H135 7319   5.141   8.290   0.708 -1.2539 -0.9263 -1.0362
   18CHTO   C81 7320   4.986   8.321   0.516 -0.4309 -0.6072 -0.0713
   18CHTO  H153 7321   4.955   8.360   0.419  1.0291 -1.6851 -1.0004
   18CHTO   N14 7322   4.930   8.417   0.616 -0.3178  0.1590 -0.3652
   18CHTO  H141 7323   4.854   8.373   0.678  0.7090 -2.1871 -0.7375
   18CHTO  H142 7324   5.010   8.465   0.669 -0.2123  1.7374 -1.9138
   18CHTO   C79 7325   4.920   8.180   0.516 -0.0784  0.4997 -0.5064
   18CHTO  H151 7326   4.815   8.195   0.489 -0.2866 -1.2746 -0.7108
   18CHTO   O52 7327   4.964   8.095   0.407 -0.0145 -0.4476  0.5327
   18CHTO   C86 7328   5.102   8.096   0.377  0.2829 -0.5597  0.3451
   18CHTO  H158 7329   5.147   8.027   0.453 -0.4683 -2.2981 -0.7642
   18CHTO   C90 7330   5.116   8.028   0.242  0.1310  0.1060  1.1663
   18CHTO   O60 7331   5.073   7.888   0.247 -0.2859 -0.3719 -0.4873
   18CHTO  H138 7332   4.986   7.885   0.282 -0.4284  1.3672 -0.6791
   18CHTO   O50 7333   4.934   8.112   0.635 -0.1676  0.2043  0.2351
   18CHTO   C73 7334   4.912   7.984   0.692 -0.6539  0.0215  0.0055
   18CHTO  H145 7335   4.967   7.912   0.629 -1.4598 -1.0475  0.5144
   18CHTO   C74 7336   4.760   7.944   0.692 -0.5671 -0.3137  0.1001
   18CHTO  H146 7337   4.726   7.964   0.590 -0.3076 -2.8488 -0.5344
   18CHTO   O54 7338   4.753   7.804   0.720  0.0644 -0.0949  0.6336
   18CHTO  H133 7339   4.826   7.754   0.750  2.0706  1.6833 -1.1519
   18CHTO   C75 7340   4.682   8.034   0.791 -0.3788 -0.3126 -0.0586
   18CHTO  H147 7341   4.672   8.134   0.747 -1.4129 -0.5580 -0.3761
   18CHTO   N13 7342   4.538   8.004   0.805  0.0008  0.0251  0.5374
   18CHTO  H139 7343   4.532   7.903   0.843 -0.8696 -0.9194 -1.9879
   18CHTO  H140 7344   4.482   8.072   0.867 -1.5236 -2.4294  1.9309
   18CHTO   C76 7345   4.755   8.032   0.939 -0.2352 -0.4447  0.2161
   18CHTO  H148 7346   4.748   7.931   0.980 -0.9902  0.4455  2.4040
   18CHTO   O49 7347   4.894   8.063   0.925 -1.0076 -0.8164 -0.4611
   18CHTO   C77 7348   4.963   7.974   0.840  0.5165  0.2643 -0.4214
   18CHTO  H149 7349   4.955   7.872   0.878  1.5061 -0.3245 -1.7283
   18CHTO   C88 7350   5.108   8.006   0.837  1.1218 -0.6549  0.0683
   18CHTO   O58 7351   5.196   7.925   0.756  0.2152  0.4692  0.3545
   18CHTO  H136 7352   5.276   7.966   0.732  1.1926 -1.1215  0.7588
   18CHTO   O51 7353   4.699   8.140   1.028 -0.0977 -0.6471 -0.6409
   18CHTO   C78 7354   4.770   8.138   1.167  0.2187 -0.3208 -0.5707
   18CHTO  H150 7355   4.870   8.089   1.166  0.4313  0.0695  0.8715
   18CHTO   C80 7356   4.681   8.063   1.267  0.0743 -0.3179 -0.4584
   18CHTO  H152 7357   4.580   8.110   1.260  0.6016  0.8029 -0.6135
   18CHTO   O55 7358   4.678   7.929   1.217  0.4249 -0.0778 -0.3839
   18CHTO  H134 7359   4.617   7.878   1.267  1.9433 -1.7806 -0.1862
   18CHTO   C84 7360   4.750   8.065   1.408 -0.5970 -0.4635  0.7916
   18CHTO  H156 7361   4.843   8.010   1.391 -0.2740  0.5734 -0.9439
   18CHTO   N15 7362   4.682   7.989   1.516  0.2989 -0.1589  0.5530
   18CHTO  H143 7363   4.599   7.944   1.466  0.2058 -1.9037  2.2271
   18CHTO  H144 7364   4.645   8.051   1.596 -1.9626 -0.1476 -0.4552
   18CHTO   C87 7365   4.807   8.200   1.452 -0.1569  0.6967  0.1001
   18CHTO  H159 7366   4.724   8.251   1.501 -1.0831 -1.8354  1.2953
   18CHTO   O53 7367   4.865   8.283   1.338  0.2581 -0.4328 -0.1563
   18CHTO   C82 7368   4.792   8.286   1.215  0.0236  0.0541 -0.0745
   18CHTO  H154 7369   4.697   8.338   1.221  0.8531  1.3698  2.6519
   18CHTO   C89 7370   4.891   8.367   1.117  0.2963 -0.4879 -0.4704
   18CHTO   O59 7371   4.832   8.386   0.987  0.0351 -0.1356 -0.5806
   18CHTO  H137 7372   4.848   8.308   0.938  1.7185 -0.5922  0.6323
   18CHTO   O45 7373   4.929   8.169   1.567 -0.2166 -0.0914 -0.8847
   18CHTO   C67 7374   5.051   8.120   1.510 -0.1370  0.1833  0.7359
   18CHTO  H124 7375   5.042   8.050   1.426  1.4768  0.6021  0.1912
   18CHTO   C65 7376   5.141   8.242   1.453  0.4033 -0.3498  0.2160
   18CHTO  H122 7377   5.081   8.333   1.466  0.8095  0.5771 -3.7841
   18CHTO   O44 7378   5.158   8.211   1.312  0.0436  0.7155 -0.8240
   18CHTO  H102 7379   5.192   8.282   1.261 -0.4646  2.0389  0.6395
   18CHTO   C63 7380   5.275   8.270   1.527  0.1425  0.2091 -0.0314
   18CHTO  H120 7381   5.258   8.297   1.631  2.1761 -1.1314  0.7027
   18CHTO   N11 7382   5.356   8.390   1.469 -0.5813  0.0838  0.1888
   18CHTO  H108 7383   5.339   8.486   1.514 -2.0526  1.0128 -2.2763
   18CHTO  H109 7384   5.326   8.408   1.368  1.3080  2.6348  0.0371
   18CHTO   C61 7385   5.360   8.134   1.530  0.1088 -0.7329  0.6828
   18CHTO  H118 7386   5.439   8.144   1.607  0.6978 -0.9300  0.1060
   18CHTO   O40 7387   5.272   8.028   1.576 -0.3432  0.3444 -0.3236
   18CHTO   C68 7388   5.136   8.045   1.619  0.2532 -0.0741  0.8775
   18CHTO  H125 7389   5.125   8.112   1.707 -1.9480 -2.0646  2.1681
   18CHTO   C72 7390   5.080   7.914   1.652  0.0820  0.7464 -0.0543
   18CHTO   O48 7391   5.136   7.873   1.781 -0.1003 -0.4679 -0.1837
   18CHTO  H105 7392   5.096   7.791   1.804  1.3431 -1.4301 -1.0335
   18CHTO   O38 7393   5.412   8.096   1.402  0.0236 -0.5340 -0.1718
   18CHTO   C55 7394   5.503   7.985   1.405 -0.6549  0.1733 -0.0845
   18CHTO  H112 7395   5.500   7.938   1.504 -0.8245 -0.7623 -0.5351
   18CHTO   C56 7396   5.653   8.041   1.371  0.0605  0.6704 -0.0694
   18CHTO  H113 7397   5.652   8.093   1.274 -0.4745 -0.6605 -0.7971
   18CHTO   O42 7398   5.690   8.141   1.469 -0.1514 -0.4874 -0.7800
   18CHTO  H100 7399   5.638   8.219   1.466  0.9994  0.4460  1.8505
   18CHTO   C57 7400   5.762   7.920   1.362  0.3745 -0.4865  0.1491
   18CHTO  H114 7401   5.772   7.894   1.468 -1.2257  2.2153  1.0221
   18CHTO   N10 7402   5.894   7.956   1.308 -0.5522 -0.2444 -0.0494
   18CHTO  H106 7403   5.894   8.033   1.232 -1.3260 -0.4823 -0.2987
   18CHTO  H107 7404   5.948   7.995   1.393 -1.8127  0.9771  0.2139
   18CHTO   C58 7405   5.698   7.806   1.278 -0.9261  0.1471  0.5538
   18CHTO  H115 7406   5.687   7.835   1.171  0.3686  0.4536  0.4975
   18CHTO   O37 7407   5.566   7.772   1.314 -0.2311  0.5427 -0.1337
   18CHTO   C59 7408   5.478   7.882   1.294  1.2589 -0.0734  0.6640
   18CHTO  H116 7409   5.488   7.919   1.192 -2.0397 -0.0078  0.3116
   18CHTO   C70 7410   5.334   7.828   1.293  0.3881  0.6251  0.7317
   18CHTO   O46 7411   5.227   7.917   1.263  0.9477  0.1649  0.6269
   18CHTO  H103 7412   5.225   7.945   1.173 -0.9175  0.0789  0.6212
   18CHTO   O39 7413   5.799   7.656   1.290 -0.6880 -0.3078 -0.3272
   18CHTO   C60 7414   5.775   7.586   1.406  0.6590 -0.2509 -0.2023
   18CHTO  H117 7415   5.711   7.643   1.474 -0.3232 -2.4144  0.7433
   18CHTO   C62 7416   5.699   7.449   1.371 -0.3908  0.1349 -0.6652
   18CHTO  H119 7417   5.604   7.480   1.322  0.7354 -0.0929 -3.0915
   18CHTO   O43 7418   5.772   7.367   1.280 -0.4040  0.6861  0.4988
   18CHTO  H101 7419   5.777   7.278   1.311  1.0777  0.1858 -1.0897
   18CHTO   C66 7420   5.654   7.372   1.503 -0.3927 -0.2975 -1.3953
   18CHTO  H123 7421   5.583   7.436   1.557  0.6539 -0.1874 -0.1338
   18CHTO   N12 7422   5.583   7.243   1.493 -0.3106  0.8360 -0.1749
   18CHTO  H110 7423   5.645   7.174   1.438 -1.7138  0.0817 -0.8366
   18CHTO  H111 7424   5.491   7.259   1.439 -0.2807 -1.0112 -0.8109
   18CHTO   C69 7425   5.775   7.360   1.595 -0.2144  0.2266  0.1438
   18CHTO  H126 7426   5.844   7.284   1.551  0.3057  1.3780 -1.0752
   18CHTO   O41 7427   5.846   7.476   1.605 -0.0059  0.1020  0.6269
   18CHTO   C64 7428   5.897   7.548   1.486  0.1084  0.4272  0.5404
   18CHTO  H121 7429   5.961   7.477   1.429 -1.6667 -0.3571 -0.5052
   18CHTO   C71 7430   5.967   7.678   1.529 -0.3351 -0.3486  0.5437
   18CHTO   O47 7431   6.072   7.654   1.626 -0.2126 -0.3493 -0.0897
   18CHTO  H104 7432   6.139   7.720   1.625 -0.5513 -0.0004  0.1564
   18CHTO   O34 7433   5.730   7.308   1.768 -0.0868  0.3775 -0.8359
   18CHTO   C49 7434   5.714   7.382   1.907 -0.2996 -0.1366 -0.1630
   18CHTO   H91 7435   5.762   7.325   1.987 -0.8888  2.3090  2.0336
   18CHTO   C47 7436   5.560   7.386   1.936 -0.0153 -0.2878 -0.3791
   18CHTO   H89 7437   5.541   7.422   2.039 -0.7749  0.1749 -0.6747
   18CHTO   O33 7438   5.502   7.256   1.925  0.4513 -0.3385 -0.4643
   18CHTO   H70 7439   5.438   7.249   1.857  0.0049  2.2604 -0.3831
   18CHTO   C45 7440   5.485   7.502   1.845  0.4567  0.2315  0.2776
   18CHTO   H87 7441   5.499   7.469   1.741 -1.0991 -1.5354  0.5930
   18CHTO    N8 7442   5.336   7.513   1.866 -0.1395  0.8403 -0.8849
   18CHTO   H75 7443   5.290   7.422   1.901  1.7813 -1.0627 -3.0973
   18CHTO   H76 7444   5.292   7.532   1.769  2.6550 -1.4712 -2.6819
   18CHTO   C43 7445   5.562   7.644   1.847  0.3070  0.9524 -0.1779
   18CHTO   H85 7446   5.517   7.706   1.769 -1.1550  2.6357  1.9419
   18CHTO   O29 7447   5.702   7.629   1.834 -0.0860 -0.5549 -0.0979
   18CHTO   C50 7448   5.776   7.524   1.904 -0.3279 -0.1354  0.1101
   18CHTO   H92 7449   5.873   7.511   1.854  0.2898  0.4444  1.1488
   18CHTO   C54 7450   5.817   7.569   2.047  0.2363  0.0328  0.4454
   18CHTO   O36 7451   5.909   7.667   2.013 -0.2087 -0.3635 -0.0413
   18CHTO   H72 7452   5.919   7.727   2.084 -0.9507  0.7373 -0.8485
   18CHTO   O27 7453   5.532   7.720   1.972  0.0350  0.1509  0.0527
   18CHTO   C37 7454   5.532   7.845   2.029 -0.1457  0.4047 -0.3274
   18CHTO   H79 7455   5.586   7.852   2.124 -0.0408  1.9109 -0.4769
   18CHTO   C38 7456   5.590   7.956   1.944  0.9480  0.5501 -0.3558
   18CHTO   H80 7457   5.543   7.962   1.845 -2.5884 -0.6572  1.1900
   18CHTO   O31 7458   5.726   7.925   1.939  0.4938  0.1682 -0.1461
   18CHTO   H68 7459   5.774   7.991   1.893 -1.7481  0.6078 -1.8708
   18CHTO   C39 7460   5.571   8.100   2.015 -0.0021  0.0173  0.6977
   18CHTO   H81 7461   5.602   8.094   2.119 -1.7339  0.1346  1.2188
   18CHTO    N7 7462   5.643   8.227   1.959  0.1757  0.7109 -0.1362
   18CHTO   H73 7463   5.650   8.305   2.034 -2.1888  0.0891  0.7539
   18CHTO   H74 7464   5.729   8.178   1.916 -0.2393  1.0392 -1.3881
   18CHTO   C40 7465   5.415   8.127   2.034 -0.8653  0.5633 -0.3261
   18CHTO   H82 7466   5.374   8.125   1.933  0.3307  0.3765 -0.8196
   18CHTO   O26 7467   5.368   8.019   2.119  0.4262  0.5285  0.7439
   18CHTO   C41 7468   5.386   7.890   2.057 -0.2964 -0.0875  0.2641
   18CHTO   H83 7469   5.320   7.885   1.970 -1.9788 -1.8427  1.5913
   18CHTO   C52 7470   5.308   7.788   2.140 -0.0414  0.1523  0.6173
   18CHTO   O35 7471   5.171   7.805   2.149  0.0708  0.4372  0.0875
   18CHTO   H71 7472   5.155   7.893   2.177 -0.2545 -0.0982  1.6315
   18CHTO   O28 7473   5.384   8.247   2.104 -0.2928 -0.5220 -0.3543
   18CHTO   C42 7474   5.254   8.290   2.147  0.2674  0.0792 -0.5717
   18CHTO   H84 7475   5.260   8.391   2.186 -1.1112 -0.0377 -0.0029
   18CHTO   C44 7476   5.186   8.211   2.259  0.2225 -0.6384  0.0091
   18CHTO   H86 7477   5.148   8.115   2.224 -0.8685  0.2315 -1.3021
   18CHTO   O32 7478   5.281   8.186   2.363  0.2739  0.0605  0.0253
   18CHTO   H69 7479   5.256   8.129   2.433 -1.9102 -0.1718 -0.9212
   18CHTO   C48 7480   5.053   8.282   2.312  0.0385 -0.3338 -0.0753
   18CHTO   H90 7481   5.067   8.378   2.361  1.5810 -0.3407 -0.4836
   18CHTO    N9 7482   4.988   8.196   2.413  0.3868  0.0761 -0.1477
   18CHTO   H77 7483   5.063   8.176   2.488  0.3565 -2.6683 -0.8180
   18CHTO   H78 7484   4.955   8.104   2.368 -3.0407  1.3259 -0.3531
   18CHTO   C51 7485   4.953   8.316   2.198 -0.6108 -0.0716 -0.0383
   18CHTO   H93 7486   4.902   8.227   2.161 -1.2495  0.3721 -0.2242
   18CHTO   O30 7487   5.022   8.390   2.095  0.1446 -0.0265 -0.2101
   18CHTO   C46 7488   5.147   8.296   2.034 -0.6491 -0.3856  0.5201
   18CHTO   H88 7489   5.115   8.195   2.009  0.8512 -0.1272 -2.6204
   18CHTO   C53 7490   5.197   8.367   1.908  0.0607  0.7675 -0.0568
   18CHTO   O72 7491   5.113   8.321   1.799 -0.2476  0.0757 -0.7115
   18CHTO  H199 7492   5.030   8.366   1.797 -0.5798 -0.3772  1.6296
   18CHTO   O22 7493   4.846   8.406   2.232  0.3925  0.2841 -0.0957
   18CHTO   C31 7494   4.715   8.407   2.157  0.0889  0.6887  0.0140
   18CHTO   H59 7495   4.654   8.492   2.194  0.2529  0.4976  0.7434
   18CHTO   C29 7496   4.734   8.428   2.002  0.3710 -0.1667 -0.1828
   18CHTO   H57 7497   4.808   8.358   1.961 -0.0278 -0.7565  0.1107
   18CHTO   O21 7498   4.801   8.553   1.993 -0.2255 -0.2294  0.3158
   18CHTO   H37 7499   4.746   8.625   1.968 -1.5844 -0.6690  1.9098
   18CHTO   C27 7500   4.594   8.423   1.919 -0.6290 -0.7424 -0.2845
   18CHTO   H55 7501   4.535   8.511   1.950  1.0726 -0.4886  2.4129
   18CHTO    N5 7502   4.612   8.429   1.773  0.0081  0.2731 -0.3707
   18CHTO   H43 7503   4.578   8.522   1.731  2.1459  1.5951  0.7502
   18CHTO   H44 7504   4.708   8.391   1.742 -0.8850 -1.2447 -1.3608
   18CHTO   C25 7505   4.521   8.292   1.963  0.2326 -0.6446  0.1523
   18CHTO   H53 7506   4.574   8.203   1.926 -0.9230 -1.4615  0.4195
   18CHTO   O17 7507   4.502   8.292   2.109 -0.2098  0.2559 -0.3902
   18CHTO   C32 7508   4.626   8.275   2.170 -1.0504  0.1482  0.0595
   18CHTO   H60 7509   4.681   8.192   2.126 -2.0065 -1.2513  1.4772
   18CHTO   C36 7510   4.590   8.233   2.320 -0.4042 -0.2831 -0.0133
   18CHTO   O25 7511   4.519   8.108   2.338  0.8175 -0.0422  0.2158
   18CHTO   H40 7512   4.438   8.122   2.382  0.4915  3.0607 -1.2303
   18CHTO   O15 7513   4.392   8.280   1.896  0.4261  0.2530 -0.1631
   18CHTO   C19 7514   4.330   8.180   1.818  0.1590 -0.8319  0.7336
   18CHTO   H47 7515   4.227   8.164   1.854  0.2273 -0.8117  0.9363
   18CHTO   C20 7516   4.313   8.234   1.670  0.5983  0.0002 -0.4250
   18CHTO   H48 7517   4.412   8.260   1.629  1.9606  0.1474  2.7824
   18CHTO   O19 7518   4.239   8.358   1.673 -0.3246  0.5163  0.3740
   18CHTO   H35 7519   4.199   8.376   1.590  0.9218 -1.7913 -0.7719
   18CHTO   C21 7520   4.232   8.126   1.585 -0.2176 -0.3077  0.6126
   18CHTO   H49 7521   4.137   8.108   1.635  0.4192 -2.0038  1.2643
   18CHTO    N4 7522   4.188   8.168   1.444 -0.4270  0.5562 -0.0688
   18CHTO   H41 7523   4.135   8.262   1.449  2.4880  2.2943 -0.4882
   18CHTO   H42 7524   4.126   8.091   1.402  0.7347 -1.6096  2.0736
   18CHTO   C22 7525   4.306   7.988   1.586 -0.5117  0.2872  0.7276
   18CHTO   H50 7526   4.406   8.013   1.551  0.4240 -0.3946  2.8383
   18CHTO   O14 7527   4.307   7.957   1.729  0.1341  0.3696  0.3667
   18CHTO   C23 7528   4.394   8.040   1.804  0.2035  0.6166 -0.2957
   18CHTO   H51 7529   4.492   8.042   1.753 -0.4502 -1.6779 -1.6999
   18CHTO   C34 7530   4.395   7.959   1.935  0.5151 -0.3596  0.1164
   18CHTO   O23 7531   4.494   8.013   2.024  0.2525  0.0465 -0.2925
   18CHTO   H38 7532   4.507   7.947   2.088 -1.4187  0.1335  0.1562
   18CHTO   O16 7533   4.239   7.881   1.515 -0.3330 -0.0612 -0.3474
   18CHTO   C24 7534   4.327   7.786   1.419 -0.4004  0.2295 -1.2252
   18CHTO   H52 7535   4.432   7.791   1.446 -1.1882  2.3847  1.6430
   18CHTO   C26 7536   4.304   7.834   1.275 -0.0260  0.1169 -0.3634
   18CHTO   H54 7537   4.194   7.846   1.263 -0.2758 -0.4910  1.1722
   18CHTO   O20 7538   4.355   7.970   1.264 -0.0186 -0.0111  0.1017
   18CHTO   H36 7539   4.327   8.023   1.192  0.5193  1.5391  1.0016
   18CHTO   C30 7540   4.377   7.746   1.169 -0.5244  0.3679 -0.0378
   18CHTO   H58 7541   4.483   7.774   1.177 -1.1721  2.7134  0.7100
   18CHTO    N6 7542   4.341   7.777   1.023  0.5766 -0.1106  0.1077
   18CHTO   H45 7543   4.270   7.856   1.005 -1.0010 -0.9238  2.6115
   18CHTO   H46 7544   4.304   7.686   0.977  1.0483  0.5526 -1.6014
   18CHTO   C33 7545   4.365   7.596   1.208  0.1920 -0.1067 -0.5797
   18CHTO   H61 7546   4.266   7.558   1.178  1.2258 -1.6895 -1.9957
   18CHTO   O18 7547   4.377   7.574   1.352 -0.4279 -0.2380  0.0480
   18CHTO   C28 7548   4.282   7.637   1.429  0.0978  0.5928  0.2936
   18CHTO   H56 7549   4.184   7.620   1.384  0.5125 -3.3406  0.7599
   18CHTO   C35 7550   4.290   7.586   1.577  0.4804  0.5544 -0.1604
   18CHTO   O24 7551   4.171   7.615   1.652 -0.1974  0.2706  0.1226
   18CHTO   H39 7552   4.134   7.699   1.634  0.5636  0.3867 -0.9521
   18CHTO    O9 7553   4.461   7.516   1.135  0.1226  0.4073 -0.4124
   18CHTO   C13 7554   4.614   7.483   1.201  0.2846 -0.2379 -0.1093
   18CHTO   H26 7555   4.607   7.445   1.306 -0.1318 -0.1281 -0.0956
   18CHTO   C11 7556   4.697   7.616   1.196 -0.5676  0.0544 -0.4329
   18CHTO   H24 7557   4.645   7.690   1.258  0.8201  1.2750 -0.6899
   18CHTO    O8 7558   4.722   7.671   1.062 -0.2754  0.3058 -0.0300
   18CHTO    H3 7559   4.781   7.606   1.027  1.5678  1.7830  0.2762
   18CHTO    C9 7560   4.828   7.573   1.268 -0.5843 -0.4882  0.1745
   18CHTO   H22 7561   4.793   7.529   1.363  2.2526  1.1426  2.0554
   18CHTO    N2 7562   4.915   7.680   1.312  0.5185  0.5625 -0.6778
   18CHTO   H10 7563   4.997   7.648   1.374 -0.4982 -1.4972 -0.3629
   18CHTO   H11 7564   4.943   7.757   1.242 -1.1094  2.7470  0.9989
   18CHTO    C7 7565   4.905   7.468   1.187 -0.5284  0.5023 -0.7192
   18CHTO   H20 7566   4.996   7.444   1.247 -0.9078  0.2792 -0.2278
   18CHTO    O4 7567   4.819   7.348   1.180  0.0593  0.0735  0.1059
   18CHTO   C14 7568   4.686   7.362   1.127 -0.4771  0.0809  0.4686
   18CHTO   H27 7569   4.634   7.267   1.150  0.7025 -0.4885  0.8037
   18CHTO   C18 7570   4.693   7.371   0.972 -0.4322 -0.1480  0.0313
   18CHTO   O13 7571   4.627   7.263   0.913 -0.4900 -0.7446 -0.0171
   18CHTO    H7 7572   4.533   7.270   0.906 -0.4671 -1.1367 -0.7577
   18CHTO    O2 7573   4.961   7.502   1.032  0.0636 -0.7684 -0.3559
   18CHTO    C1 7574   5.088   7.449   0.989  0.1776 -0.1574 -0.5512
   18CHTO   H14 7575   5.067   7.375   0.908  1.3978 -0.3204 -0.7329
   18CHTO    C2 7576   5.183   7.376   1.100 -0.3740 -0.1493 -0.1306
   18CHTO   H15 7577   5.195   7.443   1.186  3.0716 -1.0290  0.1523
   18CHTO    O6 7578   5.110   7.260   1.124 -0.0824 -0.2910 -0.3700
   18CHTO    H1 7579   5.126   7.196   1.057  0.6344 -0.2561 -0.2366
   18CHTO    C3 7580   5.329   7.355   1.043  0.2987 -0.3176  0.1699
   18CHTO   H16 7581   5.319   7.279   0.963  1.5320  0.2761 -0.5755
   18CHTO    N1 7582   5.416   7.303   1.157 -0.0198  0.4519 -0.1751
   18CHTO    H8 7583   5.453   7.394   1.203  2.3531 -0.0811 -0.9324
   18CHTO    H9 7584   5.351   7.260   1.232 -0.8780  1.1699 -0.5102
   18CHTO    C4 7585   5.382   7.481   0.974  0.0612 -0.6653  0.7315
   18CHTO   H17 7586   5.383   7.559   1.051 -3.0079 -0.5479  0.7136
   18CHTO    O1 7587   5.294   7.527   0.860 -0.0113  0.5376 -0.7296
   18CHTO    C5 7588   5.159   7.561   0.913  0.3694 -0.0367 -0.0411
   18CHTO   H18 7589   5.181   7.647   0.977 -1.4006  0.1858  0.2775
   18CHTO   C16 7590   5.072   7.612   0.790  0.5275  0.4237  0.2465
   18CHTO   O11 7591   5.076   7.511   0.687 -0.1170  0.1943  0.3008
   18CHTO    H5 7592   5.066   7.548   0.602  0.8298  0.2453  0.2070
   18CHTO    O3 7593   5.503   7.458   0.901 -0.1900  0.0139 -0.1730
   18CHTO    C6 7594   5.622   7.532   0.951 -0.9846 -0.4471  0.5990
   18CHTO   H19 7595   5.618   7.533   1.060  1.5612  0.1623  0.7106
   18CHTO    C8 7596   5.756   7.454   0.921  0.3357 -0.5783 -0.3608
   18CHTO   H21 7597   5.770   7.454   0.813 -2.6917  0.8186 -0.8096
   18CHTO    O7 7598   5.736   7.323   0.969  0.0688 -0.8074 -0.2927
   18CHTO    H2 7599   5.732   7.265   0.896  1.9032  0.3414 -1.3416
   18CHTO   C12 7600   5.871   7.529   0.996 -0.7188  0.9660 -0.0286
   18CHTO   H25 7601   5.851   7.524   1.105  0.1121 -2.4688  0.0356
   18CHTO    N3 7602   5.995   7.445   0.979  0.1532  0.7688 -0.0348
   18CHTO   H12 7603   6.027   7.383   1.062  0.6704  0.6927 -0.2907
   18CHTO   H13 7604   5.974   7.382   0.894  1.8650 -1.3629  1.0313
   18CHTO   C15 7605   5.872   7.673   0.942 -0.1895  0.4698  0.4868
   18CHTO   H28 7606   5.893   7.678   0.835  0.8514 -0.5226  0.6396
   18CHTO   O10 7607   5.956   7.758   1.012  0.7210  0.1640 -0.3638
   18CHTO    H4 7608   6.037   7.712   1.018  0.1028 -0.9479 -0.4275
   18CHTO    O5 7609   5.749   7.746   0.960  0.0792 -0.2048  0.0386
   18CHTO   C10 7610   5.635   7.683   0.900 -0.4011  0.1940 -0.2176
   18CHTO   H23 7611   5.644   7.689   0.792  0.3416 -2.4883 -0.3500
   18CHTO   C17 7612   5.520   7.775   0.926 -0.1158  0.8250 -0.1992
   18CHTO   O12 7613   5.531   7.899   0.859  0.2154 -0.2631  0.3786
   18CHTO    H6 7614   5.593   7.952   0.904  0.8794 -0.8668  0.1899
   19CHTO  H203 7615   5.387   9.398   2.917 -0.9085  0.0656  0.5911
   19CHTO   O82 7616   5.379   9.320   2.969 -0.4888 -0.4014 -0.0377
   19CHTO  C123 7617   5.355   9.206   2.884  0.2194  0.4519 -0.1529
   19CHTO  H227 7618   5.339   9.244   2.782  1.1539  1.8757  0.2043
   19CHTO   O77 7619   5.482   9.131   2.896 -0.3205  0.1905 -0.5541
   19CHTO  C118 7620   5.495   9.013   2.821 -0.0992 -0.3375  0.7340
   19CHTO  H222 7621   5.479   9.028   2.714  0.2674 -0.3057  0.6837
   19CHTO  C125 7622   5.646   8.971   2.851  0.8104  0.7195  0.3639
   19CHTO   O84 7623   5.748   9.069   2.828 -0.0899 -0.0421 -0.8913
   19CHTO  H205 7624   5.768   9.079   2.737 -1.3869 -0.0571 -1.1756
   19CHTO  C114 7625   5.392   8.910   2.861  0.6259  0.7297 -0.5418
   19CHTO  H218 7626   5.408   8.883   2.965  0.3219  0.9816 -0.4284
   19CHTO  C116 7627   5.248   8.970   2.850 -0.3002  0.3261 -0.5753
   19CHTO  H220 7628   5.225   8.985   2.743  2.1878  0.5260 -1.1240
   19CHTO   O79 7629   5.154   8.882   2.904  0.5852  0.1452  0.3870
   19CHTO  H201 7630   5.079   8.883   2.849  0.6568  0.4839  0.2976
   19CHTO  C120 7631   5.234   9.111   2.930 -0.2963 -0.8705  0.2710
   19CHTO  H224 7632   5.251   9.095   3.038 -1.5642  0.0694  0.6213
   19CHTO   N21 7633   5.102   9.181   2.919 -1.3445 -0.0723 -0.4243
   19CHTO  H211 7634   5.085   9.256   2.996 -1.5995  1.4753 -1.9718
   19CHTO  H212 7635   5.091   9.242   2.831 -2.7701 -0.0756 -0.2623
   19CHTO   O75 7636   5.403   8.790   2.774 -0.6229  0.3770  0.1415
   19CHTO  C112 7637   5.468   8.649   2.852  0.0622  0.1235 -0.3149
   19CHTO  H216 7638   5.445   8.657   2.960 -1.6896  1.2145 -0.7439
   19CHTO   O73 7639   5.611   8.640   2.822 -0.2610  0.1591  0.2733
   19CHTO  C113 7640   5.675   8.520   2.866  0.3448  0.4657  0.3750
   19CHTO  H217 7641   5.653   8.517   2.975 -2.5456 -2.0023 -0.2236
   19CHTO  C124 7642   5.827   8.539   2.842  0.0811  0.3864 -0.6266
   19CHTO   O83 7643   5.872   8.625   2.946 -0.4067 -0.2052  0.0352
   19CHTO  H204 7644   5.962   8.652   2.944 -0.2397 -0.5049  1.9795
   19CHTO  C109 7645   5.618   8.392   2.790  0.1232 -0.2999  0.3289
   19CHTO  H213 7646   5.628   8.416   2.683  1.8458  1.2727  0.8295
   19CHTO  C110 7647   5.469   8.389   2.833 -0.0930  0.4307 -0.1941
   19CHTO  H214 7648   5.470   8.364   2.939  2.8564 -2.0762 -0.7303
   19CHTO   O78 7649   5.411   8.279   2.769  0.1628  0.1768 -0.1949
   19CHTO  H200 7650   5.319   8.267   2.785  0.1028  0.0858 -0.6141
   19CHTO  C111 7651   5.394   8.522   2.801  0.9321  0.1100 -0.0736
   19CHTO  H215 7652   5.383   8.529   2.691  2.3767 -0.4821 -0.2690
   19CHTO   N19 7653   5.252   8.524   2.853  0.0833  0.3595  0.5135
   19CHTO  H207 7654   5.235   8.623   2.892 -0.4606 -0.4645  2.3995
   19CHTO  H208 7655   5.182   8.502   2.774  1.4970 -1.5950 -0.2614
   19CHTO   O74 7656   5.694   8.270   2.825 -0.2476 -0.3081  0.2849
   19CHTO  C115 7657   5.680   8.161   2.680  0.3858  0.3443  0.1216
   19CHTO  H219 7658   5.591   8.182   2.620 -1.3465 -2.1526  1.7000
   19CHTO   O76 7659   5.795   8.178   2.593  0.3080  0.2561 -0.2020
   19CHTO  C122 7660   5.816   8.093   2.481  0.1512 -0.3700  0.1393
   19CHTO  H226 7661   5.925   8.095   2.469  0.0116 -0.6667 -1.2343
   19CHTO  C126 7662   5.759   8.168   2.349  0.0119 -1.2379 -0.1804
   19CHTO   O85 7663   5.621   8.190   2.365 -0.4900 -0.7439  0.4989
   19CHTO  H206 7664   5.567   8.114   2.377 -0.6623 -0.9562 -1.4706
   19CHTO  C121 7665   5.783   7.939   2.502 -0.4545  0.4101  0.6558
   19CHTO  H225 7666   5.762   7.883   2.409  0.5021 -0.8145  1.1588
   19CHTO   O81 7667   5.895   7.872   2.564 -0.5534 -0.2814 -0.1326
   19CHTO  H202 7668   5.920   7.905   2.648  2.9202 -2.1252 -0.3703
   19CHTO  C119 7669   5.656   7.922   2.597 -0.5515 -0.2877  0.7202
   19CHTO  H223 7670   5.575   7.962   2.536  0.8475  0.8756 -0.4163
   19CHTO  C117 7671   5.675   8.010   2.727 -0.1306  0.2308  0.4083
   19CHTO  H221 7672   5.768   8.001   2.783 -1.0753 -0.0747  1.9365
   19CHTO   N20 7673   5.569   7.990   2.823 -0.2721 -0.1207  0.1769
   19CHTO  H209 7674   5.585   7.899   2.878 -0.8067 -0.4135 -0.1497
   19CHTO  H210 7675   5.475   7.970   2.775 -0.0523 -0.3211 -0.1715
   19CHTO   O80 7676   5.609   7.772   2.619 -0.4866 -0.0384  0.0759
   19CHTO  C103 7677   5.551   7.699   2.496  0.0420 -0.3169 -0.6001
   19CHTO  H190 7678   5.545   7.762   2.407 -1.3997  0.8180  0.2829
   19CHTO  C101 7679   5.629   7.570   2.448 -0.3467 -0.2023 -0.1064
   19CHTO  H188 7680   5.659   7.518   2.539  1.0389  0.9337  0.1011
   19CHTO   O68 7681   5.773   7.621   2.385 -0.1076  0.1350  0.8170
   19CHTO  H168 7682   5.826   7.551   2.353  1.9494  2.6009 -1.4728
   19CHTO   C99 7683   5.538   7.472   2.355 -0.6756 -0.7598 -0.0423
   19CHTO  H186 7684   5.528   7.526   2.258  1.6189  1.4150  0.8569
   19CHTO   N17 7685   5.594   7.337   2.318  0.3755  0.2001 -0.2027
   19CHTO  H174 7686   5.691   7.354   2.274  0.3098 -0.5815 -0.6549
   19CHTO  H175 7687   5.590   7.266   2.399  0.9157 -0.5836 -0.8506
   19CHTO   C97 7688   5.390   7.459   2.410 -0.4302  0.0645 -0.5134
   19CHTO  H184 7689   5.393   7.396   2.500 -0.6270  3.2554  1.8114
   19CHTO   O64 7690   5.333   7.590   2.432  0.4245 -0.3388 -0.1384
   19CHTO  C104 7691   5.401   7.655   2.543  0.9373  0.5036  0.4311
   19CHTO  H191 7692   5.398   7.588   2.629 -1.3867  2.6923  2.1226
   19CHTO  C108 7693   5.313   7.777   2.586 -0.5203  0.3844 -0.4681
   19CHTO   O71 7694   5.298   7.875   2.484 -0.4453  0.3178  0.2012
   19CHTO  H171 7695   5.251   7.944   2.527  1.1463  0.7455  1.2656
   19CHTO   O62 7696   5.304   7.396   2.314 -0.2140 -0.1957 -0.1077
   19CHTO   C91 7697   5.204   7.314   2.379 -0.7348  0.0402 -0.8871
   19CHTO  H178 7698   5.177   7.347   2.479  0.8116 -0.4705 -0.2697
   19CHTO   C92 7699   5.254   7.165   2.402  1.1999  0.0387  0.3842
   19CHTO  H179 7700   5.291   7.128   2.306 -1.6197 -1.3885 -0.1930
   19CHTO   O66 7701   5.365   7.166   2.495 -0.6105 -0.0458 -0.5060
   19CHTO  H166 7702   5.431   7.222   2.459 -0.5468 -1.5532 -2.8503
   19CHTO   C93 7703   5.131   7.075   2.454  0.0377  0.7186 -0.1685
   19CHTO  H180 7704   5.112   7.104   2.559  0.8881 -1.7680  0.6967
   19CHTO   N16 7705   5.178   6.931   2.459  0.3022 -0.0439  0.5211
   19CHTO  H172 7706   5.276   6.928   2.505 -0.6617 -0.7799  2.5707
   19CHTO  H173 7707   5.190   6.898   2.357  1.0757  0.3612  0.4778
   19CHTO   C94 7708   5.005   7.101   2.375 -0.0177 -0.1323 -0.5870
   19CHTO  H181 7709   5.013   7.059   2.275  1.8095  0.6398 -0.7788
   19CHTO   O61 7710   4.976   7.244   2.367 -0.4563 -0.6237 -0.5259
   19CHTO   C95 7711   5.074   7.316   2.297 -0.4481 -0.0688 -0.3939
   19CHTO  H182 7712   5.094   7.266   2.202  0.9517  1.8358 -1.1278
   19CHTO  C106 7713   5.005   7.461   2.295  0.8062 -0.2880 -0.0971
   19CHTO   O69 7714   4.878   7.467   2.232 -0.2559  0.6247  0.4146
   19CHTO  H169 7715   4.834   7.393   2.269  1.2728 -0.7497 -0.4024
   19CHTO   O63 7716   4.881   7.038   2.457 -0.2018 -0.1342  0.1523
   19CHTO   C96 7717   4.808   6.931   2.357  0.5456  0.1757  0.3353
   19CHTO  H183 7718   4.882   6.857   2.325 -0.3394 -0.8778  0.6892
   19CHTO   C98 7719   4.740   6.997   2.230 -0.0317  1.1920 -0.4090
   19CHTO  H185 7720   4.817   7.050   2.173  1.1362 -0.5987 -0.5163
   19CHTO   O67 7721   4.695   6.880   2.149 -0.1972 -0.3242  0.3312
   19CHTO  H167 7722   4.603   6.863   2.159 -0.2550 -0.1679  0.0748
   19CHTO  C102 7723   4.621   7.092   2.281 -0.4782  0.3061  0.1180
   19CHTO  H189 7724   4.548   7.081   2.200 -0.5378  0.2400  0.1801
   19CHTO   N18 7725   4.649   7.236   2.295 -0.0614 -0.2260  0.0655
   19CHTO  H176 7726   4.677   7.278   2.199  0.5073  1.3069  0.8861
   19CHTO  H177 7727   4.562   7.288   2.334 -0.9901 -0.3991 -1.7218
   19CHTO  C105 7728   4.553   7.031   2.406 -0.5832 -0.4199 -0.7297
   19CHTO  H192 7729   4.596   7.074   2.497  0.8758 -2.4175 -0.4522
   19CHTO   O65 7730   4.564   6.888   2.407  0.5075  0.2464  0.4253
   19CHTO  C100 7731   4.693   6.845   2.447 -0.0057 -0.5323  0.2204
   19CHTO  H187 7732   4.691   6.868   2.554  0.0655  1.6734 -0.2304
   19CHTO  C107 7733   4.713   6.692   2.438  0.3401 -0.3462  0.3449
   19CHTO   O70 7734   4.829   6.663   2.517  0.9279 -0.2059 -0.5484
   19CHTO  H170 7735   4.900   6.722   2.500  0.1847  0.5986 -0.9036
   19CHTO   O57 7736   4.398   7.062   2.379 -0.4068 -0.3374  0.0060
   19CHTO   C85 7737   4.312   7.021   2.485 -0.2543 -0.2309 -0.3769
   19CHTO  H157 7738   4.360   6.964   2.567 -1.5457  1.7755  1.8180
   19CHTO   C83 7739   4.195   6.925   2.427 -0.5109 -0.6442 -0.4721
   19CHTO  H155 7740   4.246   6.832   2.400 -0.4186 -0.0679 -2.3635
   19CHTO   O56 7741   4.146   6.968   2.301 -0.0353  0.4849  0.3219
   19CHTO  H135 7742   4.080   7.034   2.311 -0.6571 -0.1427  0.3687
   19CHTO   C81 7743   4.089   6.890   2.537 -0.2023 -0.2617  0.8520
   19CHTO  H153 7744   4.143   6.832   2.613  1.1794 -1.3333 -0.8805
   19CHTO   N14 7745   3.991   6.787   2.502 -0.1832 -0.0091  0.2289
   19CHTO  H141 7746   4.006   6.755   2.401  1.5225  0.4934  0.3051
   19CHTO  H142 7747   3.976   6.706   2.571 -0.1483  1.7364  2.3351
   19CHTO   C79 7748   4.024   7.023   2.593 -0.9940  0.7339 -0.4326
   19CHTO  H151 7749   3.962   6.997   2.678  1.3825  0.4967  1.2804
   19CHTO   O52 7750   4.131   7.112   2.642  0.3192  0.2055 -0.4088
   19CHTO   C86 7751   4.235   7.155   2.543  0.1358  0.4066  0.6373
   19CHTO  H158 7752   4.186   7.213   2.463  1.3361 -1.3240 -1.4174
   19CHTO   C90 7753   4.332   7.253   2.613  0.5114 -0.7369  0.0796
   19CHTO   O60 7754   4.425   7.186   2.694  0.2935 -0.4312  0.5063
   19CHTO  H138 7755   4.418   7.218   2.781 -2.6501 -0.2352  0.2511
   19CHTO   O50 7756   3.947   7.089   2.492  0.1646  0.3107  0.1228
   19CHTO   C73 7757   3.814   7.141   2.467 -0.7071 -0.0986 -0.1377
   19CHTO  H145 7758   3.741   7.092   2.533 -1.8828 -0.8345 -1.9566
   19CHTO   C74 7759   3.793   7.093   2.323 -0.0971  0.5035  0.1033
   19CHTO  H146 7760   3.815   6.985   2.320 -0.7291  0.3801 -0.2611
   19CHTO   O54 7761   3.650   7.099   2.296  0.1338  0.8538 -0.1375
   19CHTO  H133 7762   3.636   7.067   2.208  0.3615 -1.1770  0.5400
   19CHTO   C75 7763   3.891   7.175   2.226  0.3483  0.5680  0.0669
   19CHTO  H147 7764   3.994   7.140   2.241 -0.5256 -0.9073  3.0274
   19CHTO   N13 7765   3.874   7.150   2.080 -1.3009 -0.3521  0.2361
   19CHTO  H139 7766   3.962   7.184   2.027 -0.5204  1.1560  2.4139
   19CHTO  H140 7767   3.864   7.043   2.067  2.8107 -1.2484  3.1702
   19CHTO   C76 7768   3.887   7.326   2.253  0.7269 -0.1156  0.5029
   19CHTO  H148 7769   3.796   7.369   2.211  0.2359 -0.4083  1.2472
   19CHTO   O49 7770   3.884   7.358   2.389 -0.1795 -0.1062 -0.5963
   19CHTO   C77 7771   3.797   7.294   2.483  0.5366 -0.5370  0.5297
   19CHTO  H149 7772   3.695   7.323   2.459  1.0848  0.0161 -1.2633
   19CHTO   C88 7773   3.810   7.333   2.631  0.5358  0.0691 -0.0632
   19CHTO   O58 7774   3.716   7.267   2.703 -0.1732 -0.4334 -0.2313
   19CHTO  H136 7775   3.751   7.183   2.725  1.1158  0.5640  1.6447
   19CHTO   O51 7776   4.042   7.401   2.199 -0.1032  0.9023  0.5416
   19CHTO   C78 7777   4.018   7.558   2.211  0.4297  0.7531  0.5937
   19CHTO  H150 7778   3.926   7.589   2.266 -2.0957 -3.3336 -1.0951
   19CHTO   C80 7779   3.999   7.615   2.067 -0.4524 -0.2750  0.1772
   19CHTO  H152 7780   4.088   7.600   2.002 -2.3710  2.9433 -3.4245
   19CHTO   O55 7781   3.880   7.553   2.013 -0.3232 -0.7237  0.4022
   19CHTO  H134 7782   3.903   7.547   1.923 -0.5002  0.4820  0.2699
   19CHTO   C84 7783   3.988   7.775   2.070 -0.5427  0.6760 -0.7328
   19CHTO  H156 7784   3.894   7.796   2.122  0.0940  0.5166  0.4751
   19CHTO   N15 7785   3.983   7.847   1.935  0.0058  0.1460  0.0927
   19CHTO  H143 7786   3.912   7.812   1.863 -0.5245 -0.8011  1.0643
   19CHTO  H144 7787   3.962   7.949   1.960  1.6414  0.3525  0.7213
   19CHTO   C87 7788   4.100   7.835   2.163 -0.3687 -0.6094 -0.0259
   19CHTO  H159 7789   4.200   7.828   2.120  0.3296  2.0937  1.0543
   19CHTO   O53 7790   4.104   7.764   2.293  0.1043  0.1569  0.2100
   19CHTO   C82 7791   4.133   7.628   2.280  0.3637  0.5874 -0.8051
   19CHTO  H154 7792   4.224   7.612   2.222  0.4276 -1.0900 -0.2838
   19CHTO   C89 7793   4.152   7.565   2.421 -0.3134  0.4677  0.1546
   19CHTO   O59 7794   4.032   7.576   2.501  0.2820 -0.4019 -0.0718
   19CHTO  H137 7795   3.994   7.660   2.483  0.6720 -0.4393 -1.1065
   19CHTO   O45 7796   4.061   7.998   2.192 -0.6572 -0.1024 -0.5262
   19CHTO   C67 7797   4.064   8.051   2.328  0.4253 -0.1249 -0.5842
   19CHTO  H124 7798   4.020   7.973   2.390  0.2706 -0.6412 -1.3372
   19CHTO   C65 7799   4.211   8.079   2.376 -0.3238  0.0589 -0.6573
   19CHTO  H122 7800   4.274   8.130   2.303  1.5223  0.0098  0.8622
   19CHTO   O44 7801   4.268   7.952   2.415  0.0786  0.5092  0.0224
   19CHTO  H102 7802   4.308   7.914   2.339  1.5537  0.0023  1.0388
   19CHTO   C63 7803   4.202   8.187   2.490 -0.6553  0.3749  0.0945
   19CHTO  H120 7804   4.203   8.285   2.442 -1.2033  0.5968  0.5338
   19CHTO   N11 7805   4.317   8.192   2.590  0.8749 -0.7165 -0.6698
   19CHTO  H108 7806   4.285   8.149   2.683 -2.5290  0.8447 -1.0415
   19CHTO  H109 7807   4.406   8.139   2.564  2.6070  0.6958  2.1671
   19CHTO   C61 7808   4.065   8.179   2.571  0.0174 -0.1831 -0.4720
   19CHTO  H118 7809   4.075   8.264   2.639  2.4688  0.3516 -1.4358
   19CHTO   O40 7810   3.955   8.214   2.482 -0.9676  0.2732 -0.0643
   19CHTO   C68 7811   3.971   8.179   2.345 -0.1217  0.1340  0.6581
   19CHTO  H125 7812   4.020   8.270   2.304 -1.6626  0.9405  0.5939
   19CHTO   C72 7813   3.832   8.161   2.274 -0.1939  0.0560  0.1273
   19CHTO   O48 7814   3.750   8.271   2.290  0.3974 -0.2207  0.2285
   19CHTO  H105 7815   3.779   8.335   2.228  1.1060 -0.9292 -0.1876
   19CHTO   O38 7816   4.032   8.048   2.629 -0.3027 -0.3241  0.0784
   19CHTO   C55 7817   3.942   8.033   2.740  0.1420 -0.0901  0.0120
   19CHTO  H112 7818   3.856   8.099   2.719  1.0394  1.8668  2.2714
   19CHTO   C56 7819   4.016   8.071   2.879 -0.4348 -0.0294 -0.0123
   19CHTO  H113 7820   4.125   8.065   2.868 -0.5377 -2.9444 -0.0288
   19CHTO   O42 7821   3.998   8.206   2.898  0.1525 -0.1548  0.2243
   19CHTO  H100 7822   3.976   8.228   2.987  0.5296 -0.5673  0.4212
   19CHTO   C57 7823   3.965   7.984   3.000 -0.0930  0.2790 -0.2046
   19CHTO  H114 7824   3.969   8.051   3.086 -0.1148  0.6189 -0.4644
   19CHTO   N10 7825   4.049   7.867   3.033 -0.7085 -0.2435  0.1318
   19CHTO  H106 7826   4.062   7.809   2.943 -0.3942 -0.9764  0.6433
   19CHTO  H107 7827   4.015   7.806   3.116 -0.5037 -1.3178 -0.5652
   19CHTO   C58 7828   3.819   7.945   2.979  0.0566  0.5106  0.1632
   19CHTO  H115 7829   3.779   7.901   3.072  1.8228  1.6698  1.5106
   19CHTO   O37 7830   3.801   7.864   2.855  0.0523 -0.6253 -0.6967
   19CHTO   C59 7831   3.884   7.890   2.741  0.6775 -0.3564  0.5242
   19CHTO  H116 7832   3.970   7.823   2.730  1.5827  0.4152  2.6648
   19CHTO   C70 7833   3.804   7.865   2.614 -0.0820 -0.5000 -1.0077
   19CHTO   O46 7834   3.680   7.940   2.595 -0.1506 -0.2292 -0.2939
   19CHTO  H103 7835   3.671   7.953   2.503  0.0914 -2.0317 -0.5917
   19CHTO   O39 7836   3.733   8.105   2.949  0.1889 -0.1811 -0.5391
   19CHTO   C60 7837   3.608   8.093   2.884 -0.0493 -0.1781  0.1082
   19CHTO  H117 7838   3.611   8.051   2.784  0.9560  1.9377 -0.7836
   19CHTO   C62 7839   3.507   8.013   2.971  0.3407 -0.5506  0.1435
   19CHTO  H119 7840   3.559   7.917   2.992  0.2212 -1.1243 -2.1074
   19CHTO   O43 7841   3.486   8.081   3.098 -0.2413 -0.2000  0.7308
   19CHTO  H101 7842   3.468   8.173   3.095  2.1249  0.4623  4.3858
   19CHTO   C66 7843   3.374   7.991   2.884  0.0208  0.0336  0.0907
   19CHTO  H123 7844   3.399   7.937   2.792 -2.5197 -1.5610  0.2883
   19CHTO   N12 7845   3.279   7.916   2.963 -0.2125  0.0638 -0.1592
   19CHTO  H110 7846   3.244   7.970   3.050  2.8987  0.5827  0.8199
   19CHTO  H111 7847   3.319   7.818   2.984  1.4581  1.0762  1.5627
   19CHTO   C69 7848   3.314   8.130   2.834  0.5453  0.6474 -0.1242
   19CHTO  H126 7849   3.274   8.169   2.930  0.9186  2.6778 -0.7693
   19CHTO   O41 7850   3.424   8.234   2.783  0.2788  0.4825 -0.4922
   19CHTO   C64 7851   3.546   8.235   2.869 -0.2268 -0.3246 -0.0124
   19CHTO  H121 7852   3.523   8.274   2.970 -0.6799 -0.0607 -0.2157
   19CHTO   C71 7853   3.640   8.336   2.787  0.2327  0.2391 -0.2107
   19CHTO   O47 7854   3.694   8.280   2.665  0.4236  0.4365  0.2300
   19CHTO  H104 7855   3.644   8.277   2.586 -0.7316 -2.1202  1.0003
   19CHTO   O34 7856   3.208   8.102   2.718 -0.1757 -0.0152  0.4486
   19CHTO   C49 7857   3.243   8.104   2.554 -0.2901 -0.7471  0.5473
   19CHTO   H91 7858   3.242   8.207   2.517 -0.6486 -0.8642  0.2296
   19CHTO   C47 7859   3.132   8.023   2.486  0.3759  0.0133 -0.5601
   19CHTO   H89 7860   3.143   8.049   2.379  0.8335 -0.1298 -0.5461
   19CHTO   O33 7861   3.006   8.080   2.538  0.4137 -0.4673  0.2313
   19CHTO   H70 7862   2.976   8.038   2.616  0.6930 -1.2515 -0.0867
   19CHTO   C45 7863   3.140   7.870   2.510  0.3492  0.2834  0.0228
   19CHTO   H87 7864   3.137   7.850   2.618 -0.5121  1.0475  0.1428
   19CHTO    N8 7865   3.030   7.791   2.453  0.3046 -0.7791  0.0017
   19CHTO   H75 7866   3.040   7.804   2.346 -0.8868 -0.1889 -0.0502
   19CHTO   H76 7867   2.941   7.836   2.493 -1.2878 -2.1510 -1.8989
   19CHTO   C43 7868   3.281   7.811   2.459 -0.0358  0.5456  0.1168
   19CHTO   H85 7869   3.285   7.708   2.494 -0.0983  0.7957  0.8530
   19CHTO   O29 7870   3.382   7.895   2.519 -0.2508 -0.5339 -0.0988
   19CHTO   C50 7871   3.380   8.042   2.513  0.1922  0.3983  0.2983
   19CHTO   H92 7872   3.453   8.081   2.586  1.5599  0.8083 -1.2779
   19CHTO   C54 7873   3.435   8.088   2.374  0.4116 -0.4299  0.3569
   19CHTO   O36 7874   3.456   8.229   2.376 -0.0461  0.6162  0.1561
   19CHTO   H72 7875   3.547   8.253   2.368  0.0277 -0.0538 -1.2562
   19CHTO   O27 7876   3.287   7.809   2.314  0.8059  0.5011 -0.2736
   19CHTO   C37 7877   3.317   7.767   2.181  0.1282  0.3803  0.6961
   19CHTO   H79 7878   3.270   7.668   2.169 -0.4729  0.6614  0.7140
   19CHTO   C38 7879   3.249   7.861   2.082  0.5418 -0.2509  0.5063
   19CHTO   H80 7880   3.280   7.964   2.107  1.3976 -0.5641  0.7478
   19CHTO   O31 7881   3.105   7.846   2.092 -0.4671  0.6670 -0.1015
   19CHTO   H68 7882   3.089   7.763   2.053 -2.7571  0.6354  0.8399
   19CHTO   C39 7883   3.298   7.833   1.938  0.1314 -0.1525 -0.0265
   19CHTO   H81 7884   3.238   7.750   1.903 -1.7905  1.8205 -1.5664
   19CHTO    N7 7885   3.256   7.946   1.846  0.4438  0.0444  0.3176
   19CHTO   H73 7886   3.289   8.043   1.880 -0.2775  1.6617 -3.3187
   19CHTO   H74 7887   3.149   7.944   1.830  0.3354  1.5456  0.7669
   19CHTO   C40 7888   3.458   7.812   1.928  0.1533 -0.2285 -0.0908
   19CHTO   H82 7889   3.520   7.902   1.925 -0.4231  0.2438  1.5324
   19CHTO   O26 7890   3.506   7.721   2.024  0.0887  0.0501  0.3796
   19CHTO   C41 7891   3.472   7.753   2.163 -0.0575  0.2569  0.3580
   19CHTO   H83 7892   3.529   7.843   2.192  1.3146 -0.4363 -0.1304
   19CHTO   C52 7893   3.524   7.641   2.252  0.7984 -0.0290  0.3343
   19CHTO   O35 7894   3.673   7.621   2.261 -0.1517  0.0902  0.2165
   19CHTO   H71 7895   3.711   7.634   2.176  1.4793 -0.6904  0.7842
   19CHTO   O28 7896   3.491   7.741   1.805  0.0395 -0.2488  0.3142
   19CHTO   C42 7897   3.629   7.709   1.754 -0.3385  0.1408  0.0289
   19CHTO   H84 7898   3.694   7.695   1.840 -0.9509 -1.3235  0.2628
   19CHTO   C44 7899   3.693   7.816   1.661 -0.3629  0.1536 -0.0677
   19CHTO   H86 7900   3.615   7.852   1.594 -0.6631 -0.4396 -0.0474
   19CHTO   O32 7901   3.700   7.937   1.735  0.0762  0.3158 -0.4910
   19CHTO   H69 7902   3.791   7.945   1.758 -0.3545  2.8964  0.4955
   19CHTO   C48 7903   3.826   7.761   1.591  0.6152 -0.5273 -0.2279
   19CHTO   H90 7904   3.907   7.735   1.659 -0.1511  1.2644  1.4225
   19CHTO    N9 7905   3.881   7.871   1.503  0.6304 -0.0767  0.0922
   19CHTO   H77 7906   3.968   7.831   1.454  0.8131 -1.5229  1.5425
   19CHTO   H78 7907   3.812   7.898   1.425 -0.3003  0.0386  0.9379
   19CHTO   C51 7908   3.789   7.634   1.516  0.4215  0.6171 -0.0577
   19CHTO   H93 7909   3.702   7.655   1.452 -0.5968  1.0710  1.4589
   19CHTO   O30 7910   3.764   7.524   1.604 -0.4420  0.0748 -0.1864
   19CHTO   C46 7911   3.624   7.570   1.683  0.3842 -0.4021  0.5561
   19CHTO   H88 7912   3.539   7.577   1.616 -1.4020 -1.5457  2.6537
   19CHTO   C53 7913   3.604   7.453   1.789  0.4815  0.0850 -0.0535
   19CHTO   O72 7914   3.605   7.332   1.720  0.1455  0.2001 -0.5553
   19CHTO  H199 7915   3.571   7.256   1.763  1.7882  0.6829  1.6697
   19CHTO   O22 7916   3.902   7.577   1.448  0.2428  0.0380  0.2737
   19CHTO   C31 7917   3.871   7.489   1.332 -0.0152 -0.0179  0.0492
   19CHTO   H59 7918   3.760   7.487   1.322  0.0509 -2.9256 -0.5385
   19CHTO   C29 7919   3.927   7.548   1.202 -0.6559 -0.0928 -0.3935
   19CHTO   H57 7920   4.025   7.591   1.227 -0.6778 -0.3786  0.1745
   19CHTO   O21 7921   3.850   7.663   1.173 -0.1019 -0.0097 -0.0101
   19CHTO   H37 7922   3.800   7.647   1.095  2.2450 -1.6654 -1.2230
   19CHTO   C27 7923   3.937   7.448   1.081  0.2234  0.4273 -0.4801
   19CHTO   H55 7924   3.837   7.407   1.063 -1.0974  2.7223  1.3553
   19CHTO    N5 7925   3.990   7.500   0.957  0.1500  0.0613  0.9942
   19CHTO   H43 7926   4.025   7.603   0.959 -2.5175  1.0171  0.2061
   19CHTO   H44 7927   4.050   7.426   0.908 -1.2177 -0.3044 -0.1590
   19CHTO   C25 7928   4.019   7.320   1.134 -0.3499 -0.0453  0.2276
   19CHTO   H53 7929   4.113   7.356   1.177  0.8028  0.3684 -2.5298
   19CHTO   O17 7930   3.940   7.266   1.239  0.0579 -0.0194  0.2371
   19CHTO   C32 7931   3.923   7.343   1.355 -0.0438  0.0424  0.0279
   19CHTO   H60 7932   4.023   7.346   1.396 -0.5081 -0.2457  1.1977
   19CHTO   C36 7933   3.828   7.256   1.434  0.1838 -0.5754 -0.0288
   19CHTO   O25 7934   3.701   7.229   1.369 -0.7735 -0.0306  0.0443
   19CHTO   H40 7935   3.655   7.159   1.410 -0.5440 -0.5807 -0.6301
   19CHTO   O15 7936   4.060   7.220   1.032 -0.9356  0.5649  0.0142
   19CHTO   C19 7937   4.127   7.093   1.044 -0.8330  0.0169 -0.0142
   19CHTO   H47 7938   4.151   7.064   0.941  0.2628 -2.5630  0.9248
   19CHTO   C20 7939   4.258   7.091   1.130 -0.4362 -0.1081 -0.4220
   19CHTO   H48 7940   4.237   7.124   1.233 -0.9339  1.7353 -1.0772
   19CHTO   O19 7941   4.344   7.186   1.069 -0.3310 -0.0847 -0.2407
   19CHTO   H35 7942   4.381   7.235   1.139 -1.0952  0.0657  0.0648
   19CHTO   C21 7943   4.333   6.951   1.134  0.1301  0.5427 -0.1655
   19CHTO   H49 7944   4.370   6.930   1.034  0.0138 -0.0942 -0.0751
   19CHTO    N4 7945   4.450   6.931   1.220 -0.6582 -1.4582 -0.1501
   19CHTO   H41 7946   4.458   7.022   1.278 -0.7623 -0.2877 -1.9413
   19CHTO   H42 7947   4.536   6.915   1.157 -0.4066 -2.2764  0.3992
   19CHTO   C22 7948   4.229   6.836   1.155 -0.1851 -0.1551 -0.4108
   19CHTO   H50 7949   4.218   6.821   1.263  2.4686 -0.5111 -0.1384
   19CHTO   O14 7950   4.103   6.859   1.093  0.0365  0.0743  0.5825
   19CHTO   C23 7951   4.037   6.985   1.108 -0.6689 -0.0383  0.0744
   19CHTO   H51 7952   4.019   6.998   1.216 -1.5977 -1.7092  0.1392
   19CHTO   C34 7953   3.901   6.976   1.034  0.4834 -0.0636  0.1832
   19CHTO   O23 7954   3.816   6.877   1.098 -0.6772 -0.0552 -0.8391
   19CHTO   H38 7955   3.777   6.913   1.175 -0.7871  2.0499 -1.8612
   19CHTO   O16 7956   4.276   6.719   1.095 -0.2018 -0.0817  0.1773
   19CHTO   C24 7957   4.288   6.576   1.190 -0.3134 -0.2363  1.0787
   19CHTO   H52 7958   4.274   6.598   1.296  0.3351 -0.2601  1.1699
   19CHTO   C26 7959   4.421   6.501   1.172  0.5621  0.8248  0.6839
   19CHTO   H54 7960   4.433   6.491   1.062  1.1329 -4.8936  1.1161
   19CHTO   O20 7961   4.524   6.581   1.219 -0.4403 -0.1505  0.4885
   19CHTO   H36 7962   4.606   6.556   1.182  0.9314  2.6113  1.5149
   19CHTO   C30 7963   4.419   6.356   1.239 -0.5228  0.1109 -0.2780
   19CHTO   H58 7964   4.427   6.368   1.348  0.6658 -1.2104 -0.2092
   19CHTO    N6 7965   4.537   6.271   1.205  0.5362 -0.0242  0.3891
   19CHTO   H45 7966   4.533   6.168   1.238  1.9096 -1.4997 -3.7524
   19CHTO   H46 7967   4.550   6.269   1.098  0.3255 -0.0459  0.3636
   19CHTO   C33 7968   4.288   6.282   1.218  0.1216  0.1420  0.2666
   19CHTO   H61 7969   4.286   6.239   1.116 -1.1966 -0.3536  0.4944
   19CHTO   O18 7970   4.175   6.372   1.236  0.4487  0.6769 -0.1554
   19CHTO   C28 7971   4.167   6.485   1.147 -0.3863  0.5602 -0.2916
   19CHTO   H56 7972   4.182   6.456   1.043 -0.9012 -2.4946  0.4467
   19CHTO   C35 7973   4.028   6.558   1.179  0.0842 -0.1250 -0.1530
   19CHTO   O24 7974   3.910   6.475   1.179 -0.4698  0.5687  0.0440
   19CHTO   H39 7975   3.845   6.532   1.142 -1.8628 -1.1274 -0.2028
   19CHTO    O9 7976   4.277   6.162   1.304 -0.3699 -0.2766 -1.1551
   19CHTO   C13 7977   4.180   6.022   1.240 -0.3453 -0.2878  0.3929
   19CHTO   H26 7978   4.220   6.008   1.137 -0.4516 -2.3164  0.5939
   19CHTO   C11 7979   4.029   6.057   1.234  0.9343 -0.5979  0.0478
   19CHTO   H24 7980   4.015   6.135   1.157 -1.3937 -0.6423  0.3996
   19CHTO    O8 7981   3.995   6.116   1.361 -0.0838 -0.3929  0.5439
   19CHTO    H3 7982   3.991   6.209   1.353  2.5848 -0.2780  0.1192
   19CHTO    C9 7983   3.952   5.935   1.178 -0.4181  0.2433 -0.4321
   19CHTO   H22 7984   4.001   5.915   1.082 -2.2614 -1.2764 -1.0967
   19CHTO    N2 7985   3.805   5.962   1.162 -0.9529  0.0978  0.1786
   19CHTO   H10 7986   3.807   6.043   1.090  1.5217 -1.2605 -1.3596
   19CHTO   H11 7987   3.761   5.991   1.256  0.9083 -1.6956  1.6400
   19CHTO    C7 7988   3.982   5.801   1.261 -0.5037 -0.3675 -0.3027
   19CHTO   H20 7989   3.949   5.721   1.191 -1.5057 -1.2049  1.0938
   19CHTO    O4 7990   4.121   5.776   1.287  0.0359  0.5770 -0.1404
   19CHTO   C14 7991   4.201   5.890   1.319 -0.5396  0.4520 -0.3674
   19CHTO   H27 7992   4.303   5.856   1.292  1.1287  4.7510  0.1170
   19CHTO   C18 7993   4.203   5.907   1.469  0.0016  0.3176  0.0901
   19CHTO   O13 7994   4.255   5.787   1.520 -0.0025  0.2652 -0.2054
   19CHTO    H7 7995   4.238   5.779   1.612 -0.9581 -0.1151 -0.4037
   19CHTO    O2 7996   3.892   5.787   1.402  0.6642 -0.0293 -0.3968
   19CHTO    C1 7997   3.829   5.667   1.433  0.0475  0.2526  0.1371
   19CHTO   H14 7998   3.890   5.588   1.386  1.9603  0.5738  1.9774
   19CHTO    C2 7999   3.682   5.653   1.383  0.4524  0.6056  0.1459
   19CHTO   H15 8000   3.629   5.741   1.422  1.0034  1.7190 -1.5300
   19CHTO    O6 8001   3.680   5.653   1.241 -0.0258 -0.1912  0.2476
   19CHTO    H1 8002   3.764   5.631   1.204 -0.2369  1.3918 -1.2247
   19CHTO    C3 8003   3.619   5.515   1.440  0.3919  0.3663 -0.6612
   19CHTO   H16 8004   3.666   5.434   1.382 -1.0206  0.2691 -1.7146
   19CHTO    N1 8005   3.470   5.498   1.424  0.3375 -0.2075  0.5865
   19CHTO    H8 8006   3.414   5.459   1.508 -1.7193  0.5802 -0.4036
   19CHTO    H9 8007   3.428   5.593   1.394  1.9509 -0.2011 -1.8239
   19CHTO    C4 8008   3.658   5.483   1.593  0.0903 -0.7412  0.2244
   19CHTO   H17 8009   3.594   5.544   1.656 -0.0120 -0.6843  0.0660
   19CHTO    O1 8010   3.798   5.512   1.621  0.1603 -0.2064  0.7422
   19CHTO    C5 8011   3.836   5.646   1.585 -0.5999 -0.1803 -0.1602
   19CHTO   H18 8012   3.769   5.718   1.633  0.6301 -0.7920  2.5566
   19CHTO   C16 8013   3.976   5.670   1.644  0.1611 -0.2742  0.4058
   19CHTO   O11 8014   4.070   5.579   1.595 -0.5818 -0.1152  0.5047
   19CHTO    H5 8015   4.046   5.489   1.609  0.4156 -0.7644 -1.7885
   19CHTO    O3 8016   3.641   5.340   1.610 -0.0960  0.0582 -0.4643
   19CHTO    C6 8017   3.655   5.289   1.742  0.2028 -0.1609 -0.3423
   19CHTO   H19 8018   3.722   5.349   1.804 -0.8492 -1.5012  2.1631
   19CHTO    C8 8019   3.510   5.287   1.806  0.3617  0.0433  0.6073
   19CHTO   H21 8020   3.437   5.251   1.733  0.7865 -0.8402  0.6107
   19CHTO    O7 8021   3.478   5.420   1.854  0.3498 -0.2532 -0.7888
   19CHTO    H2 8022   3.390   5.420   1.888  0.9880  1.3499  0.9180
   19CHTO   C12 8023   3.501   5.195   1.939  0.8517  0.0569  0.7862
   19CHTO   H25 8024   3.557   5.256   2.013 -2.1445 -0.9389  3.9840
   19CHTO    N3 8025   3.356   5.185   1.986  0.0554 -0.1519 -0.1447
   19CHTO   H12 8026   3.330   5.271   2.046 -0.1117  1.0362 -1.9041
   19CHTO   H13 8027   3.292   5.178   1.900 -3.7131 -1.8431  2.6713
   19CHTO   C15 8028   3.570   5.055   1.913 -0.4722 -0.6136 -0.0435
   19CHTO   H28 8029   3.508   5.014   1.833  0.5663  2.4955 -2.5187
   19CHTO   O10 8030   3.590   4.965   2.039  0.0309 -0.3330 -0.5864
   19CHTO    H4 8031   3.568   4.874   2.029  1.0190 -0.7966  1.2266
   19CHTO    O5 8032   3.707   5.082   1.865  0.4124 -0.1026  0.4428
   19CHTO   C10 8033   3.715   5.147   1.736  0.1042 -0.3007  0.3717
   19CHTO   H23 8034   3.668   5.084   1.660  2.8834 -2.7398  0.6096
   19CHTO   C17 8035   3.866   5.153   1.696  0.2463  0.5455 -0.7572
   19CHTO   O12 8036   3.902   5.015   1.661 -0.3283 -0.1305 -0.6219
   19CHTO    H6 8037   3.903   4.953   1.731  2.1760  0.1924 -0.3040
   20CHTO  H203 8038   4.661   0.048   2.344 -0.3473 -1.6283 -1.4795
   20CHTO   O82 8039   4.740   0.082   2.308  0.2369 -0.1493  1.0682
   20CHTO  C123 8040   4.705   0.207   2.254  0.0899  1.4198 -0.3066
   20CHTO  H227 8041   4.609   0.235   2.301  0.3970  0.2237  1.0890
   20CHTO   O77 8042   4.816   0.288   2.306  0.3184 -0.0841 -0.3799
   20CHTO  C118 8043   4.795   0.432   2.283 -0.1494 -0.6029 -0.0898
   20CHTO  H222 8044   4.709   0.471   2.338  0.1342  0.3399 -0.3073
   20CHTO  C125 8045   4.925   0.496   2.347  0.3814 -0.2382  0.2102
   20CHTO   O84 8046   5.045   0.470   2.278  0.8214 -0.1979 -0.0473
   20CHTO  H205 8047   5.122   0.493   2.326 -0.1798  1.0816  0.9676
   20CHTO  C114 8048   4.779   0.463   2.131 -0.3186  0.3964  0.5061
   20CHTO  H218 8049   4.872   0.431   2.084 -1.2871  0.1130 -1.2633
   20CHTO  C116 8050   4.663   0.378   2.066  0.3207  0.0271  0.5152
   20CHTO  H220 8051   4.570   0.402   2.122 -0.5446  0.9356 -1.2950
   20CHTO   O79 8052   4.644   0.410   1.927 -0.8752  0.2554 -0.7142
   20CHTO  H201 8053   4.713   0.374   1.874  0.9988 -1.0282  2.4889
   20CHTO  C120 8054   4.693   0.225   2.096  0.7040  0.6706  0.2071
   20CHTO  H224 8055   4.787   0.198   2.043  0.1597  0.9647 -0.9247
   20CHTO   N21 8056   4.587   0.137   2.035  0.3650 -0.6704 -0.0356
   20CHTO  H211 8057   4.578   0.043   2.088 -2.0892  0.7283  2.0971
   20CHTO  H212 8058   4.496   0.192   2.019 -0.1746 -0.6227  2.9412
   20CHTO   O75 8059   4.742   0.599   2.127 -0.2576  0.1513 -0.4898
   20CHTO  C112 8060   4.836   0.692   2.037 -0.0898 -0.3580 -0.4185
   20CHTO  H216 8061   4.827   0.666   1.930  2.8559 -2.2693 -0.2515
   20CHTO   O73 8062   4.972   0.684   2.082 -0.4161 -0.3517 -0.1075
   20CHTO  C113 8063   5.067   0.734   1.987 -0.1166  0.3095  0.0548
   20CHTO  H217 8064   5.053   0.678   1.893  1.4836  0.2655 -0.1732
   20CHTO  C124 8065   5.207   0.690   2.043  0.2507  0.0903  0.2494
   20CHTO   O83 8066   5.243   0.557   2.048  0.3251  0.6630 -0.5672
   20CHTO  H204 8067   5.245   0.518   1.963  2.4615 -1.3794  0.3652
   20CHTO  C109 8068   5.045   0.889   1.983 -0.6846  0.0274 -0.4357
   20CHTO  H213 8069   5.082   0.923   2.081  0.9919  1.7563 -1.6180
   20CHTO  C110 8070   4.898   0.926   1.964 -0.0709 -0.0506 -0.1507
   20CHTO  H214 8071   4.884   0.901   1.859 -0.0871  1.2439 -0.4670
   20CHTO   O78 8072   4.877   1.068   1.980  0.0602 -0.2824 -0.5905
   20CHTO  H200 8073   4.893   1.129   1.910 -0.3997 -0.6443 -1.0119
   20CHTO  C111 8074   4.798   0.845   2.047 -1.0843  0.0743  1.2716
   20CHTO  H215 8075   4.802   0.889   2.148  1.4767  0.5335  1.0033
   20CHTO   N19 8076   4.660   0.870   1.994 -0.6803 -0.4428  1.1493
   20CHTO  H207 8077   4.594   0.788   2.019 -0.4888 -1.4378 -1.4934
   20CHTO  H208 8078   4.663   0.866   1.886 -2.3519 -1.8472  1.1294
   20CHTO   O74 8079   5.125   0.947   1.878 -0.9066  0.6686 -0.1436
   20CHTO  C115 8080   5.228   1.062   1.928  0.3086 -0.0546  0.4860
   20CHTO  H219 8081   5.223   1.085   2.034  2.2966 -1.6687  0.9595
   20CHTO   O76 8082   5.365   1.022   1.905 -1.0200  0.0264  0.2800
   20CHTO  C122 8083   5.392   0.988   1.764  0.3933 -0.0245 -0.3408
   20CHTO  H226 8084   5.342   0.893   1.744 -0.0543  0.0515  0.3839
   20CHTO  C126 8085   5.545   0.962   1.764 -0.5020  0.3740 -0.1550
   20CHTO   O85 8086   5.594   0.909   1.639  0.1735  0.0071  1.0291
   20CHTO  H206 8087   5.687   0.899   1.647  0.3476  0.4184 -0.3795
   20CHTO  C121 8088   5.337   1.110   1.663  0.8658  0.6143 -0.1833
   20CHTO  H225 8089   5.418   1.131   1.590 -0.2905  0.2326 -1.6063
   20CHTO   O81 8090   5.230   1.060   1.582  0.2408  0.2040  0.3053
   20CHTO  H202 8091   5.189   1.128   1.533  0.8036  0.8509  0.7216
   20CHTO  C119 8092   5.294   1.237   1.739  0.7951  0.3709 -0.0228
   20CHTO  H223 8093   5.381   1.275   1.793  1.4466  0.8068 -1.3781
   20CHTO  C117 8094   5.190   1.196   1.852 -0.4585 -0.1449  0.0623
   20CHTO  H221 8095   5.089   1.187   1.812 -0.4446 -0.6576  0.1393
   20CHTO   N20 8096   5.188   1.310   1.952 -0.4866 -0.2053  0.3563
   20CHTO  H209 8097   5.239   1.294   2.046 -1.4446  0.0511  0.9280
   20CHTO  H210 8098   5.086   1.337   1.974 -0.1996  0.3400  1.0636
   20CHTO   O80 8099   5.270   1.362   1.645  0.5513  0.0866 -0.4193
   20CHTO  C103 8100   5.125   1.361   1.555 -0.1833  0.0330  0.4254
   20CHTO  H190 8101   5.099   1.256   1.542  1.9729 -0.2725 -1.6537
   20CHTO  C101 8102   4.999   1.436   1.608 -0.7117  0.1034 -0.0638
   20CHTO  H188 8103   5.030   1.537   1.631 -0.5916  0.5847 -2.2143
   20CHTO   O68 8104   4.953   1.361   1.746  0.8168 -0.4830 -0.2362
   20CHTO  H168 8105   4.871   1.403   1.766  0.4319 -0.3169 -2.1091
   20CHTO   C99 8106   4.885   1.424   1.496 -0.1254 -0.6271 -0.5179
   20CHTO  H186 8107   4.861   1.317   1.482  2.0738 -1.5593  2.3303
   20CHTO   N17 8108   4.759   1.478   1.542 -0.3817 -0.0200 -0.5692
   20CHTO  H174 8109   4.690   1.399   1.569 -0.5622  0.1653 -0.4786
   20CHTO  H175 8110   4.780   1.553   1.617 -0.8614  0.3581 -0.8124
   20CHTO   C97 8111   4.943   1.477   1.358  0.1992 -0.5418 -0.7204
   20CHTO  H184 8112   4.959   1.586   1.364  1.8354 -0.8569  1.2803
   20CHTO   O64 8113   5.062   1.403   1.322 -0.5220  0.1661  0.1846
   20CHTO  C104 8114   5.167   1.419   1.414  0.4174 -0.4583 -0.0987
   20CHTO  H191 8115   5.187   1.525   1.424 -1.9230  0.0549 -0.6275
   20CHTO  C108 8116   5.291   1.348   1.354  0.2543  0.4027  0.3067
   20CHTO   O71 8117   5.319   1.407   1.225  0.0593 -0.0365  0.8399
   20CHTO  H171 8118   5.315   1.500   1.219 -0.4991 -0.2117 -2.3782
   20CHTO   O62 8119   4.853   1.459   1.250 -0.1165  0.0176 -0.7576
   20CHTO   C91 8120   4.810   1.567   1.164  0.1075 -0.8979  0.7374
   20CHTO  H178 8121   4.894   1.636   1.175  0.8363 -1.5312 -0.6936
   20CHTO   C92 8122   4.678   1.644   1.213  0.4875 -0.5734  0.5770
   20CHTO  H179 8123   4.601   1.568   1.232 -1.8500  2.3502  3.2423
   20CHTO   O66 8124   4.707   1.709   1.337  0.7642 -0.1199 -0.1038
   20CHTO  H166 8125   4.642   1.774   1.352  0.3034 -0.5007 -0.4458
   20CHTO   C93 8126   4.623   1.753   1.109 -0.3617  0.9357  0.4527
   20CHTO  H180 8127   4.675   1.848   1.131 -1.0716  1.0925  1.4433
   20CHTO   N16 8128   4.478   1.781   1.133 -0.3766 -0.4368 -0.3243
   20CHTO  H172 8129   4.414   1.706   1.089 -1.0450  0.4344 -0.8659
   20CHTO  H173 8130   4.460   1.773   1.239 -1.0928 -2.9624 -0.6078
   20CHTO   C94 8131   4.649   1.712   0.955  0.2271  0.5928  0.1151
   20CHTO  H181 8132   4.567   1.653   0.915  1.8431 -1.1150 -0.8061
   20CHTO   O61 8133   4.780   1.658   0.928 -0.3375  0.2238 -0.1284
   20CHTO   C95 8134   4.800   1.535   1.008 -0.6180  0.5376 -0.7131
   20CHTO  H182 8135   4.711   1.473   1.000 -0.8343  0.2608  3.0899
   20CHTO  C106 8136   4.924   1.462   0.952  0.2462  0.3438  0.1795
   20CHTO   O69 8137   4.908   1.439   0.808  0.2997 -0.2149  0.3156
   20CHTO  H169 8138   4.989   1.425   0.764  0.9538 -1.3342  1.8382
   20CHTO   O63 8139   4.655   1.858   0.864  0.1463 -0.5426  0.3844
   20CHTO   C96 8140   4.673   1.842   0.710  0.5176 -0.0127  0.5177
   20CHTO  H183 8141   4.657   1.737   0.683  0.7477  0.3085 -0.8950
   20CHTO   C98 8142   4.809   1.879   0.650  0.5047 -0.3778  0.1277
   20CHTO  H185 8143   4.839   1.981   0.675 -2.3852  0.5268  0.0449
   20CHTO   O67 8144   4.908   1.793   0.717  0.2280  0.2800  0.5238
   20CHTO  H167 8145   4.987   1.797   0.666  0.4269 -0.3692  0.7730
   20CHTO  C102 8146   4.812   1.867   0.492  0.2798 -0.4737  0.5850
   20CHTO  H189 8147   4.805   1.760   0.466 -1.4801 -0.1380 -0.4057
   20CHTO   N18 8148   4.940   1.917   0.430 -0.0041  0.2177  0.2053
   20CHTO  H176 8149   5.006   1.832   0.430 -0.3817 -0.0927  1.6198
   20CHTO  H177 8150   4.986   1.998   0.486  0.6631  1.2563 -1.8145
   20CHTO  C105 8151   4.692   1.946   0.428  1.2010  0.2256  0.6933
   20CHTO  H192 8152   4.701   2.050   0.458 -0.8965  0.5888  0.0756
   20CHTO   O65 8153   4.571   1.892   0.488 -0.1071 -0.4270 -0.7567
   20CHTO  C100 8154   4.571   1.920   0.631  0.2019  0.1717  0.3140
   20CHTO  H187 8155   4.592   2.027   0.646  1.5648  0.4252 -2.9258
   20CHTO  C107 8156   4.426   1.888   0.678  0.1210 -0.8382  0.2347
   20CHTO   O70 8157   4.315   1.948   0.610 -0.1026 -0.0069 -0.5936
   20CHTO  H170 8158   4.259   1.882   0.574 -2.0873  0.5363  1.3594
   20CHTO   O57 8159   4.687   1.924   0.257 -0.1671  0.5039  0.5118
   20CHTO   C85 8160   4.671   1.786   0.200 -0.3217 -0.6702 -0.3138
   20CHTO  H157 8161   4.678   1.721   0.290 -0.7239  0.6032  0.6574
   20CHTO   C83 8162   4.795   1.768   0.095  0.0008 -0.0568  0.4778
   20CHTO  H155 8163   4.886   1.778   0.153 -0.1350 -1.0087  0.8725
   20CHTO   O56 8164   4.803   1.878   0.006 -0.4247 -0.1234  0.0220
   20CHTO  H135 8165   4.812   1.958   0.054 -0.2687 -0.0885 -0.0673
   20CHTO   C81 8166   4.791   1.630   0.032  0.0598  0.4266  0.2021
   20CHTO  H153 8167   4.807   1.560   0.114  1.1999  0.3624 -0.0549
   20CHTO   N14 8168   4.909   1.604  -0.055 -0.0794  0.7485  0.1605
   20CHTO  H141 8169   4.902   1.512  -0.109 -1.0516 -0.2049  1.8617
   20CHTO  H142 8170   4.997   1.599   0.006 -0.0623 -1.3553 -0.0034
   20CHTO   C79 8171   4.651   1.600  -0.035  0.7448  0.3730  1.1982
   20CHTO  H151 8172   4.648   1.495  -0.062  0.4972  0.6870 -0.0432
   20CHTO   O52 8173   4.534   1.627   0.051 -0.5495 -0.1767  0.4804
   20CHTO   C86 8174   4.537   1.756   0.120 -0.8087  0.9602 -0.5693
   20CHTO  H158 8175   4.516   1.830   0.040  2.8907  2.3502 -0.3438
   20CHTO   C90 8176   4.413   1.756   0.218  0.1133  0.5274  0.1369
   20CHTO   O60 8177   4.426   1.665   0.326 -0.1279  0.2939  0.8352
   20CHTO  H138 8178   4.394   1.579   0.306 -0.4726  0.2579  1.5390
   20CHTO   O50 8179   4.629   1.684  -0.158  0.1390  0.0709 -0.5581
   20CHTO   C73 8180   4.609   1.714  -0.293  0.2041 -0.4577  0.4179
   20CHTO  H145 8181   4.704   1.747  -0.339 -2.2060  0.4842 -4.1854
   20CHTO   C74 8182   4.512   1.829  -0.315  0.0259  0.1596  0.5247
   20CHTO  H146 8183   4.548   1.921  -0.267  1.7871 -0.0766 -0.3231
   20CHTO   O54 8184   4.506   1.855  -0.456  0.3215 -0.0156 -0.4909
   20CHTO  H133 8185   4.442   1.923  -0.471  0.4646  0.4162  0.8585
   20CHTO   C75 8186   4.369   1.784  -0.251  0.0427  0.4488 -0.0386
   20CHTO  H147 8187   4.390   1.749  -0.149 -1.4923 -0.3730 -0.0054
   20CHTO   N13 8188   4.269   1.891  -0.251  0.3156  0.8769  0.1618
   20CHTO  H139 8189   4.182   1.868  -0.310  0.0890 -0.9322  1.1608
   20CHTO  H140 8190   4.318   1.984  -0.274  0.3431  0.8241  0.0071
   20CHTO   C76 8191   4.320   1.640  -0.313  0.8109  0.2789  0.3938
   20CHTO  H148 8192   4.300   1.663  -0.417 -0.4665 -0.2617  0.5140
   20CHTO   O49 8193   4.429   1.540  -0.322  0.9647  0.1296 -0.5997
   20CHTO   C77 8194   4.555   1.591  -0.371  0.0650 -0.8199  0.2500
   20CHTO  H149 8195   4.534   1.625  -0.473  3.2971  1.2462  0.1722
   20CHTO   C88 8196   4.669   1.486  -0.372 -0.3441 -0.4385  0.0228
   20CHTO   O58 8197   4.669   1.401  -0.494  0.4757  0.0148  0.2235
   20CHTO  H136 8198   4.715   1.443  -0.564  0.4849 -0.5354 -0.1055
   20CHTO   O51 8199   4.194   1.559  -0.215 -0.1361 -0.3276 -0.0116
   20CHTO   C78 8200   4.228   1.535  -0.063 -0.1566  0.4896  1.0607
   20CHTO  H150 8201   4.303   1.608  -0.026  2.2122 -0.7338 -1.0886
   20CHTO   C80 8202   4.285   1.397  -0.027  0.3897  0.1027  0.3603
   20CHTO  H152 8203   4.219   1.320  -0.074  3.7819 -2.6746 -0.0486
   20CHTO   O55 8204   4.414   1.368  -0.089  0.3346  0.2399 -0.2842
   20CHTO  H134 8205   4.445   1.280  -0.076 -0.4477  0.1088  0.7894
   20CHTO   C84 8206   4.288   1.364   0.132 -0.6961 -0.3082 -0.3873
   20CHTO  H156 8207   4.358   1.424   0.190 -0.2826 -0.4896 -0.6941
   20CHTO   N15 8208   4.335   1.225   0.152  0.5136 -0.1740  0.0083
   20CHTO  H143 8209   4.264   1.157   0.111 -1.5565  2.3522 -0.6948
   20CHTO  H144 8210   4.431   1.213   0.106  2.2411  4.0003  2.2162
   20CHTO   C87 8211   4.148   1.388   0.183 -0.6539  0.1118  0.1486
   20CHTO  H159 8212   4.073   1.323   0.138 -1.2915 -0.2208  1.6616
   20CHTO   O53 8213   4.106   1.528   0.146  0.0058 -0.6793  0.0052
   20CHTO   C82 8214   4.092   1.548   0.008 -0.5133 -0.4832 -0.4487
   20CHTO  H154 8215   4.019   1.476  -0.030  0.6455 -1.6819 -0.4336
   20CHTO   C89 8216   4.024   1.689  -0.000  0.2078 -0.1087  0.0333
   20CHTO   O59 8217   3.972   1.730  -0.130 -0.4080  0.4610  0.3153
   20CHTO  H137 8218   3.896   1.677  -0.147  0.0318  0.2796 -1.1341
   20CHTO   O45 8219   4.131   1.374   0.345  0.0339 -0.6890  0.1079
   20CHTO   C67 8220   4.192   1.472   0.428 -0.3316 -0.0285  0.0165
   20CHTO  H124 8221   4.286   1.509   0.385 -1.7523 -0.0459 -3.2260
   20CHTO   C65 8222   4.100   1.594   0.454  0.1230  0.1813  0.2250
   20CHTO  H122 8223   4.048   1.622   0.362 -1.2845 -0.6981  0.7175
   20CHTO   O44 8224   4.180   1.707   0.496 -0.3379  0.1120 -0.6675
   20CHTO  H102 8225   4.134   1.782   0.527 -1.4310 -0.7944 -0.0544
   20CHTO   C63 8226   3.991   1.537   0.543  0.6973 -0.1633 -0.6806
   20CHTO  H120 8227   3.956   1.441   0.505 -0.9136  0.3724 -0.5623
   20CHTO   N11 8228   3.866   1.624   0.554 -0.6343  0.3107 -0.0168
   20CHTO  H108 8229   3.864   1.693   0.472  1.2335 -0.5949 -0.8641
   20CHTO  H109 8230   3.788   1.554   0.533  0.5323 -1.0177  0.0018
   20CHTO   C61 8231   4.045   1.498   0.690  0.1141 -0.5483  0.0995
   20CHTO  H118 8232   3.963   1.455   0.749  2.0459 -3.1007  1.0050
   20CHTO   O40 8233   4.130   1.388   0.663  0.2038  0.1252  0.2160
   20CHTO   C68 8234   4.238   1.400   0.568  0.4730  0.3868 -0.0954
   20CHTO  H125 8235   4.262   1.295   0.543 -0.7935 -0.1714  0.9878
   20CHTO   C72 8236   4.359   1.468   0.635  0.3228  0.0083  0.0436
   20CHTO   O48 8237   4.417   1.404   0.742  0.2107 -0.0945 -0.3567
   20CHTO  H105 8238   4.350   1.365   0.795 -1.9128  0.7748 -2.2926
   20CHTO   O38 8239   4.117   1.600   0.763 -0.2020  0.3113 -0.1502
   20CHTO   C55 8240   4.044   1.655   0.878 -0.3002 -0.3095  0.3979
   20CHTO  H112 8241   3.940   1.621   0.888  0.8070 -3.7718  0.9509
   20CHTO   C56 8242   4.055   1.812   0.868 -0.3384 -0.5706  0.0912
   20CHTO  H113 8243   4.160   1.842   0.854 -0.8587  0.1739 -2.3415
   20CHTO   O42 8244   3.982   1.838   0.747  0.0205  0.8927 -0.0960
   20CHTO  H100 8245   4.033   1.908   0.712  3.5113 -0.4831  2.0016
   20CHTO   C57 8246   3.987   1.878   0.995  0.0672 -0.2017  0.2789
   20CHTO  H114 8247   3.887   1.838   0.986  0.2723 -1.3168  2.5351
   20CHTO   N10 8248   3.979   2.024   0.998 -0.4716 -0.4324 -0.6175
   20CHTO  H106 8249   3.986   2.065   1.098 -0.0130 -0.7469 -0.5176
   20CHTO  H107 8250   4.055   2.062   0.932  0.1546 -1.1330 -0.3114
   20CHTO   C58 8251   4.055   1.825   1.121  0.2877  0.6629 -0.0615
   20CHTO  H115 8252   4.162   1.853   1.124  0.6705 -0.8517  0.4916
   20CHTO   O37 8253   4.044   1.680   1.123  0.1174  0.3928  0.6977
   20CHTO   C59 8254   4.114   1.623   1.010 -0.3537  0.2772  0.4781
   20CHTO  H116 8255   4.219   1.649   1.004 -0.4068  0.2900 -0.4809
   20CHTO   C70 8256   4.128   1.469   1.023 -0.2043 -0.0105 -0.0658
   20CHTO   O46 8257   4.013   1.395   1.042 -0.6817  0.2595  0.7270
   20CHTO  H103 8258   4.005   1.320   0.986 -0.8408 -1.6651  3.2298
   20CHTO   O39 8259   3.973   1.882   1.268 -1.1521 -0.6266 -0.1931
   20CHTO   C60 8260   4.047   1.890   1.392 -0.2878  0.3104 -0.4063
   20CHTO  H117 8261   4.104   1.798   1.412 -0.1071  0.3367 -0.8020
   20CHTO   C62 8262   4.158   1.997   1.390  0.2614  0.1314  0.4914
   20CHTO  H119 8263   4.224   1.958   1.310 -1.0814  1.4525 -1.2950
   20CHTO   O43 8264   4.110   2.128   1.348  0.5535  0.4108 -0.2070
   20CHTO  H101 8265   4.031   2.116   1.299  0.4193 -1.6414  0.4670
   20CHTO   C66 8266   4.240   2.006   1.529  0.2317 -0.9433 -0.0980
   20CHTO  H123 8267   4.294   1.912   1.536  2.7587  0.4743 -0.0152
   20CHTO   N12 8268   4.351   2.107   1.530 -0.0809  0.2268 -0.0112
   20CHTO  H110 8269   4.364   2.135   1.427  2.0666  1.1839  0.4837
   20CHTO  H111 8270   4.321   2.196   1.583  0.2952 -0.2465  1.0163
   20CHTO   C69 8271   4.139   2.029   1.645 -0.0858 -0.4740 -0.4339
   20CHTO  H126 8272   4.083   2.123   1.632  0.0934 -0.2797  0.2339
   20CHTO   O41 8273   4.030   1.918   1.648  0.2540  0.0704 -0.6720
   20CHTO   C64 8274   3.953   1.912   1.509 -0.8762 -0.4627 -0.2696
   20CHTO  H121 8275   3.897   2.006   1.493  1.1150  0.3908 -2.6211
   20CHTO   C71 8276   3.856   1.797   1.519 -0.5815  0.5894  0.0883
   20CHTO   O47 8277   3.761   1.813   1.622  0.0504  0.5487 -0.6179
   20CHTO  H104 8278   3.767   1.726   1.656 -2.5974 -0.3927 -2.4186
   20CHTO   O34 8279   4.221   2.027   1.786 -0.8318  0.2467 -0.7156
   20CHTO   C49 8280   4.268   1.886   1.840 -0.2713  0.1483 -0.1004
   20CHTO   H91 8281   4.277   1.821   1.753  2.0700 -2.4959  2.0510
   20CHTO   C47 8282   4.155   1.817   1.929  0.4173  0.3538  0.2250
   20CHTO   H89 8283   4.092   1.766   1.853  2.7853 -0.4041 -1.3120
   20CHTO   O33 8284   4.073   1.917   1.993 -0.1682 -0.2792 -0.1331
   20CHTO   H70 8285   4.003   1.879   2.043  1.5026 -1.9536  0.9953
   20CHTO   C45 8286   4.212   1.712   2.044  0.3628  0.1879  0.2427
   20CHTO   H87 8287   4.241   1.773   2.131 -2.4239  0.6430  0.9022
   20CHTO    N8 8288   4.107   1.618   2.091 -0.3694  0.6804 -0.0868
   20CHTO   H75 8289   4.051   1.656   2.175 -0.0335 -0.1202  0.5118
   20CHTO   H76 8290   4.044   1.578   2.013 -2.7226  1.3646  1.4230
   20CHTO   C43 8291   4.348   1.649   1.992  0.8998  0.7103  0.7306
   20CHTO   H85 8292   4.379   1.589   2.077 -0.3212 -0.2780  0.4891
   20CHTO   O29 8293   4.440   1.756   1.968  0.5845 -0.2868 -0.2172
   20CHTO   C50 8294   4.398   1.884   1.920  0.5769  0.0406  0.1893
   20CHTO   H92 8295   4.388   1.958   2.001  1.4973  0.1613  0.1927
   20CHTO   C54 8296   4.506   1.936   1.829 -0.8884  0.4235  0.1104
   20CHTO   O36 8297   4.523   1.847   1.717  0.3971  0.0383  0.1872
   20CHTO   H72 8298   4.612   1.840   1.690 -0.5249 -0.1247 -2.9431
   20CHTO   O27 8299   4.323   1.577   1.874  0.6182  0.2492  0.4443
   20CHTO   C37 8300   4.330   1.470   1.776  0.3820  0.5586  0.0223
   20CHTO   H79 8301   4.266   1.385   1.806  3.7462 -1.5725  1.4334
   20CHTO   C38 8302   4.270   1.510   1.648 -0.1627  0.2162  0.0818
   20CHTO   H80 8303   4.321   1.598   1.607  0.0200  1.6084  3.1060
   20CHTO   O31 8304   4.133   1.548   1.677 -0.6124 -0.2299  0.5165
   20CHTO   H68 8305   4.105   1.598   1.603  0.9065 -0.1602 -0.0110
   20CHTO   C39 8306   4.281   1.388   1.546 -0.0700  0.6407  0.2554
   20CHTO   H81 8307   4.221   1.310   1.594 -0.0391  0.0462 -0.6510
   20CHTO    N7 8308   4.226   1.419   1.408  0.4486 -0.2301 -0.5969
   20CHTO   H73 8309   4.202   1.328   1.353 -1.9805 -0.9090  1.4740
   20CHTO   H74 8310   4.308   1.465   1.355  0.1511 -0.1932 -1.0321
   20CHTO   C40 8311   4.436   1.335   1.532  0.1127  0.8897 -0.0669
   20CHTO   H82 8312   4.498   1.403   1.475  0.1448  0.9787  0.0728
   20CHTO   O26 8313   4.491   1.318   1.665 -0.1544  0.0901 -1.2597
   20CHTO   C41 8314   4.478   1.421   1.761  0.7539 -1.3236  0.8325
   20CHTO   H83 8315   4.545   1.503   1.729  0.1128 -1.2895 -0.4691
   20CHTO   C52 8316   4.533   1.383   1.900  0.3720  0.5756  0.2157
   20CHTO   O35 8317   4.687   1.319   1.896 -0.0829 -0.0440 -0.6052
   20CHTO   H71 8318   4.744   1.357   1.831  2.0703  0.7892  1.6757
   20CHTO   O28 8319   4.430   1.204   1.475  0.0306  0.5761 -0.6823
   20CHTO   C42 8320   4.545   1.134   1.429 -0.5304  0.0691  0.2364
   20CHTO   H84 8321   4.504   1.037   1.399  1.1798 -0.9139  1.0551
   20CHTO   C44 8322   4.654   1.105   1.532 -0.8343  0.1567 -0.2347
   20CHTO   H86 8323   4.693   1.201   1.566  1.4328 -0.0981 -2.0140
   20CHTO   O32 8324   4.598   1.049   1.651 -0.4051  0.5086  0.0287
   20CHTO   H69 8325   4.545   1.113   1.694 -0.2368  0.0691  0.8941
   20CHTO   C48 8326   4.776   1.019   1.483  0.6219 -0.0143 -0.2035
   20CHTO   H90 8327   4.752   0.914   1.470  2.1151 -0.3535 -0.2424
   20CHTO    N9 8328   4.884   1.006   1.589 -0.0358 -0.0507 -0.0547
   20CHTO   H77 8329   4.862   1.067   1.675 -0.9761  0.1775 -0.4457
   20CHTO   H78 8330   4.987   1.009   1.556 -0.6359  0.0845 -2.0272
   20CHTO   C51 8331   4.838   1.064   1.344 -0.6361 -0.4552 -0.7426
   20CHTO   H93 8332   4.911   1.142   1.367  0.2019 -1.2109 -0.8210
   20CHTO   O30 8333   4.736   1.110   1.252  0.4669  0.3352  0.1958
   20CHTO   C46 8334   4.616   1.200   1.297  0.8469  0.1390  0.4610
   20CHTO   H88 8335   4.644   1.304   1.307 -2.0934  0.9544  0.4902
   20CHTO   C53 8336   4.516   1.211   1.170 -0.8230 -0.2147 -0.4328
   20CHTO   O72 8337   4.573   1.280   1.060  0.3497  0.0879 -0.3176
   20CHTO  H199 8338   4.631   1.228   1.008 -0.0348 -0.2332 -0.4335
   20CHTO   O22 8339   4.906   0.953   1.288  0.1038  0.4277  0.4563
   20CHTO   C31 8340   5.010   0.967   1.183 -0.5982  0.6727  0.8461
   20CHTO   H59 8341   4.985   0.880   1.119  0.0316  1.4400 -0.4428
   20CHTO   C29 8342   5.029   1.088   1.095 -0.8284 -0.0990  0.2332
   20CHTO   H57 8343   5.044   1.181   1.153  2.4845  1.1417 -2.4536
   20CHTO   O21 8344   4.903   1.113   1.038  0.3337  0.2540  0.1870
   20CHTO   H37 8345   4.902   1.071   0.954 -0.4615  2.8078 -1.1379
   20CHTO   C27 8346   5.147   1.071   0.993 -0.0471 -0.5239 -0.0156
   20CHTO   H55 8347   5.120   0.984   0.931  0.2326 -2.4437  2.4589
   20CHTO    N5 8348   5.169   1.199   0.913 -0.1670 -0.3676 -0.1871
   20CHTO   H43 8349   5.128   1.197   0.813 -1.8966 -0.0724  0.4969
   20CHTO   H44 8350   5.273   1.225   0.901  0.0381 -0.6482  0.9902
   20CHTO   C25 8351   5.269   1.025   1.075 -0.5567 -0.0148 -0.3210
   20CHTO   H53 8352   5.304   1.103   1.144  1.0082 -3.5052  3.0151
   20CHTO   O17 8353   5.247   0.908   1.156 -0.1539  0.1599 -0.1148
   20CHTO   C32 8354   5.145   0.931   1.249 -0.2352 -0.4419  0.1856
   20CHTO   H60 8355   5.165   1.011   1.321 -1.6782  0.8186 -0.7680
   20CHTO   C36 8356   5.129   0.799   1.324  0.4733  0.0454 -0.1823
   20CHTO   O25 8357   5.068   0.697   1.239  0.2647 -0.5601 -0.0401
   20CHTO   H40 8358   5.133   0.668   1.179  0.2778  0.5923 -0.5887
   20CHTO   O15 8359   5.389   0.991   0.974  0.2387  0.5497  0.2373
   20CHTO   C19 8360   5.493   1.058   0.900  0.1415  0.9525 -0.7341
   20CHTO   H47 8361   5.442   1.145   0.858  0.1645  1.8592  1.0918
   20CHTO   C20 8362   5.611   1.096   0.994  0.9823  0.6231 -0.4271
   20CHTO   H48 8363   5.666   1.007   1.025  0.5661  1.3851  2.7170
   20CHTO   O19 8364   5.562   1.162   1.114  0.4144 -0.3588  0.2610
   20CHTO   H35 8365   5.546   1.097   1.179 -0.7635 -0.4389 -0.1128
   20CHTO   C21 8366   5.707   1.185   0.913 -0.1131  0.1896 -0.6875
   20CHTO   H49 8367   5.650   1.270   0.874 -1.0569  0.7069  1.6956
   20CHTO    N4 8368   5.823   1.225   0.996 -0.5427  0.1674 -0.8332
   20CHTO   H41 8369   5.922   1.233   0.954 -0.2009 -1.7661 -0.4437
   20CHTO   H42 8370   5.798   1.317   1.047 -2.6180  0.5671 -2.5067
   20CHTO   C22 8371   5.749   1.112   0.782 -0.2104 -0.1802  0.3412
   20CHTO   H50 8372   5.808   1.022   0.801 -1.5075 -0.6302  2.3853
   20CHTO   O14 8373   5.633   1.064   0.705  0.4602  0.0922 -0.3507
   20CHTO   C23 8374   5.540   0.979   0.776  0.0400 -0.0960 -0.0721
   20CHTO   H51 8375   5.590   0.884   0.803  0.8429  0.5231  0.6423
   20CHTO   C34 8376   5.422   0.935   0.680  0.1463  0.5837  0.2039
   20CHTO   O23 8377   5.355   0.828   0.743  0.3095 -0.1490  0.0111
   20CHTO   H38 8378   5.321   0.762   0.686 -1.7256  2.6300 -2.1452
   20CHTO   O16 8379   5.822   1.199   0.686  0.0731  0.4542 -0.5923
   20CHTO   C24 8380   5.992   1.229   0.688 -0.3172  0.4735 -0.7293
   20CHTO   H52 8381   6.038   1.186   0.777 -1.0803  0.5149 -0.3058
   20CHTO   C26 8382   6.016   1.384   0.696  0.2568 -0.3156 -0.2645
   20CHTO   H54 8383   5.967   1.430   0.608 -0.9435  1.0794  1.0942
   20CHTO   O20 8384   5.944   1.441   0.811  0.8263 -0.3500 -0.3158
   20CHTO   H36 8385   5.999   1.437   0.887 -1.0251  3.1404  1.3188
   20CHTO   C30 8386   6.169   1.416   0.705 -0.7177  0.4001  0.7446
   20CHTO   H58 8387   6.193   1.422   0.812  0.6899  0.4107  0.4381
   20CHTO    N6 8388   6.203   1.551   0.640 -0.2256 -0.0462  0.2517
   20CHTO   H45 8389   6.251   1.531   0.545 -0.7471 -3.0858  0.5946
   20CHTO   H46 8390   6.270   1.612   0.699  1.3213  1.6769 -3.0749
   20CHTO   C33 8391   6.255   1.300   0.655 -0.0696  0.0736 -0.1938
   20CHTO   H61 8392   6.352   1.337   0.619 -0.5360 -0.9004 -2.5487
   20CHTO   O18 8393   6.196   1.230   0.537  0.4028 -0.4506 -0.0357
   20CHTO   C28 8394   6.064   1.174   0.565 -0.0855 -0.5033 -0.5059
   20CHTO   H56 8395   6.006   1.196   0.475  0.6623 -0.1154 -0.9014
   20CHTO   C35 8396   6.073   1.021   0.574 -0.1968  0.2346  0.3498
   20CHTO   O24 8397   6.157   0.986   0.459 -1.0471 -0.3746 -0.2609
   20CHTO   H39 8398   6.129   0.902   0.428  0.5783 -1.2723  0.6540
   20CHTO    O9 8399   6.282   1.209   0.764 -0.5483 -0.1725 -0.1615
   20CHTO   C13 8400   6.442   1.124   0.808  0.7839 -0.0449 -0.7854
   20CHTO   H26 8401   6.503   1.180   0.881  0.1027 -1.9536  1.3001
   20CHTO   C11 8402   6.523   1.095   0.671  0.3206  0.0282 -0.1618
   20CHTO   H24 8403   6.569   1.190   0.640  1.2879 -0.7722 -1.2790
   20CHTO    O8 8404   6.455   1.043   0.555  0.0940  0.2848 -0.5352
   20CHTO    H3 8405   6.407   1.115   0.519 -1.1747 -1.0790 -1.6844
   20CHTO    C9 8406   6.636   1.001   0.721  0.6435 -0.0678  0.2001
   20CHTO   H22 8407   6.677   1.049   0.810  2.1914 -1.2675  0.1581
   20CHTO    N2 8408   6.752   0.987   0.626 -0.3265 -0.3818  0.8596
   20CHTO   H10 8409   6.729   0.956   0.525 -3.0603 -1.4518  1.7535
   20CHTO   H11 8410   6.810   0.910   0.676 -0.3303  0.2710  1.8827
   20CHTO    C7 8411   6.584   0.857   0.769 -0.6318 -0.0963  0.5400
   20CHTO   H20 8412   6.652   0.831   0.853  0.1211 -1.1664 -0.3886
   20CHTO    O4 8413   6.447   0.870   0.806  0.4046 -0.1897 -0.5383
   20CHTO   C14 8414   6.409   0.988   0.879 -0.3775  0.6866 -0.2107
   20CHTO   H27 8415   6.454   0.982   0.980 -1.2262 -1.7561  0.0773
   20CHTO   C18 8416   6.260   0.969   0.896  0.2163 -0.4152 -0.6557
   20CHTO   O13 8417   6.218   0.874   0.986  0.0057  0.1312  0.1806
   20CHTO    H7 8418   6.272   0.797   0.982 -1.1849 -0.6385 -1.9784
   20CHTO    O2 8419   6.590   0.747   0.649  0.0403 -0.2944  0.8172
   20CHTO    C1 8420   6.574   0.618   0.705  0.6979  0.4187  0.2663
   20CHTO   H14 8421   6.527   0.628   0.805 -1.5830  0.4516 -0.7752
   20CHTO    C2 8422   6.707   0.535   0.718 -0.7302 -0.1051 -0.6831
   20CHTO   H15 8423   6.743   0.519   0.615  0.4411 -1.0002 -0.1481
   20CHTO    O6 8424   6.807   0.612   0.790  0.4340 -0.6747  0.3904
   20CHTO    H1 8425   6.883   0.558   0.798  2.4099  1.3566 -3.1559
   20CHTO    C3 8426   6.676   0.390   0.795 -0.4701  0.2474  0.2960
   20CHTO   H16 8427   6.622   0.405   0.890 -0.1406  0.2418  0.4826
   20CHTO    N1 8428   6.804   0.320   0.825  0.0862  0.4536 -0.3357
   20CHTO    H8 8429   6.871   0.382   0.883  1.9212 -2.9207  1.2897
   20CHTO    H9 8430   6.788   0.238   0.893 -3.0033  1.8998  0.8133
   20CHTO    C4 8431   6.584   0.315   0.698 -0.0304 -0.3768 -0.6702
   20CHTO   H17 8432   6.636   0.311   0.602 -1.9880  1.4810 -1.8573
   20CHTO    O1 8433   6.467   0.393   0.691 -0.0686  0.5525  0.5381
   20CHTO    C5 8434   6.478   0.524   0.629  0.2305 -0.3752 -0.2189
   20CHTO   H18 8435   6.517   0.507   0.528  0.9555  0.8144 -0.1427
   20CHTO   C16 8436   6.334   0.575   0.625 -0.3363 -0.3030 -0.1854
   20CHTO   O11 8437   6.316   0.702   0.568 -0.5110 -0.2639 -0.2737
   20CHTO    H5 8438   6.226   0.713   0.545 -0.9504 -1.4390  0.8686
   20CHTO    O3 8439   6.537   0.188   0.749  0.0003  0.0180  0.3174
   20CHTO    C6 8440   6.484   0.093   0.644  0.2903 -0.4241 -0.1279
   20CHTO   H19 8441   6.464   0.144   0.550 -3.6899 -0.2793  0.7143
   20CHTO    C8 8442   6.590  -0.022   0.633  0.4646 -0.0198  0.1562
   20CHTO   H21 8443   6.608  -0.063   0.732  1.4206  0.9992  0.4188
   20CHTO    O7 8444   6.715   0.036   0.577 -0.5282  0.4826 -0.5242
   20CHTO    H2 8445   6.721   0.038   0.483 -0.5538 -0.2502 -0.5486
   20CHTO   C12 8446   6.534  -0.130   0.533  0.3881 -0.1096  0.3830
   20CHTO   H25 8447   6.541  -0.081   0.434  1.9704 -1.0563  0.0096
   20CHTO    N3 8448   6.626  -0.253   0.525 -0.2939  0.0467 -0.1426
   20CHTO   H12 8449   6.627  -0.312   0.615 -2.6823 -2.6368 -1.7902
   20CHTO   H13 8450   6.594  -0.318   0.445  0.6181 -1.4715  0.7107
   20CHTO   C15 8451   6.378  -0.166   0.566  0.1433  0.1374 -0.8139
   20CHTO   H28 8452   6.369  -0.236   0.649 -1.4327  0.5311 -0.6319
   20CHTO   O10 8453   6.311  -0.229   0.447  0.2891 -0.5567  0.0629
   20CHTO    H4 8454   6.235  -0.267   0.487  0.3848  0.4098  1.2085
   20CHTO    O5 8455   6.297  -0.049   0.592 -0.0429 -0.3191 -0.1400
   20CHTO   C10 8456   6.352   0.040   0.690 -0.0966 -0.1105 -0.5118
   20CHTO   H23 8457   6.377  -0.029   0.771  1.3020  1.1347  0.1454
   20CHTO   C17 8458   6.254   0.142   0.744 -0.0441 -0.9399 -0.4505
   20CHTO   O12 8459   6.170   0.207   0.646 -0.0634 -0.0221  0.1170
   20CHTO    H6 8460   6.211   0.263   0.584 -3.4095  1.6663 -0.7248
   21GLOH   H03 8461   3.337   8.626   0.936 -1.0257 -0.1595 -0.7899
   21GLOH    O1 8462   3.301   8.636   1.026  0.3235  0.3130 -0.2882
   21GLOH    C1 8463   3.393   8.714   1.110  0.4212  0.1544 -0.3093
   21GLOH   H02 8464   3.464   8.770   1.049  0.6097 -0.0357 -0.2664
   21GLOH   H08 8465   3.458   8.645   1.164  1.4419  0.3338 -1.3057
   21GLOH    C2 8466   3.320   8.797   1.210  0.6785  0.0216 -0.3569
   21GLOH   H04 8467   3.260   8.733   1.275  1.8979 -0.4921  0.2750
   21GLOH    O2 8468   3.405   8.882   1.288  0.0675  0.1113 -0.0540
   21GLOH   H05 8469   3.380   8.886   1.381 -0.1737  0.8090 -0.1504
   21GLOH    C3 8470   3.206   8.877   1.138 -0.1053 -0.2247 -0.3424
   21GLOH   H06 8471   3.146   8.825   1.063  1.2398 -1.1976 -0.7647
   21GLOH   H07 8472   3.258   8.950   1.076  2.5255 -1.6094  0.1472
   21GLOH    O3 8473   3.120   8.934   1.239  0.5343  0.0957  0.0965
   21GLOH   H01 8474   3.075   8.859   1.283  3.1541  0.4909  3.6490
   22GLOH   H03 8475   4.264   8.824   2.639 -0.5941  1.4176  0.2879
   22GLOH    O1 8476   4.190   8.762   2.624  0.3195  0.4957 -0.4295
   22GLOH    C1 8477   4.119   8.737   2.749  0.1815  0.2993  0.4499
   22GLOH   H02 8478   4.193   8.724   2.828  0.6396 -1.3836 -0.2291
   22GLOH   H08 8479   4.069   8.640   2.739  0.8935 -0.0675  0.4827
   22GLOH    C2 8480   4.012   8.837   2.792 -0.2794 -0.4270 -0.3915
   22GLOH   H04 8481   3.974   8.815   2.893  2.6465 -0.8362  0.6794
   22GLOH    O2 8482   4.078   8.963   2.792  0.3078  0.4370 -0.5521
   22GLOH   H05 8483   4.146   8.963   2.722 -0.4363  0.7831 -1.2857
   22GLOH    C3 8484   3.896   8.849   2.693  0.3684  0.5273 -0.0531
   22GLOH   H06 8485   3.928   8.875   2.592  1.5755  4.5193  1.2779
   22GLOH   H07 8486   3.834   8.932   2.728  2.5716  1.4555  1.7799
   22GLOH    O3 8487   3.819   8.730   2.697  1.1222  0.0220  0.0109
   22GLOH   H01 8488   3.802   8.700   2.606  0.7221  0.8618 -0.1905
   23GLOH   H03 8489   3.240   8.507   1.131  2.5713 -1.6015 -0.2667
   23GLOH    O1 8490   3.223   8.420   1.170  0.1495 -1.2406 -0.4444
   23GLOH    C1 8491   3.081   8.409   1.167  0.1152  0.3259  0.6760
   23GLOH   H02 8492   3.042   8.337   1.238 -5.7183  3.3031  0.7743
   23GLOH   H08 8493   3.038   8.371   1.075  0.3703  1.0729  0.2368
   23GLOH    C2 8494   3.017   8.549   1.201 -0.1925 -0.0885  0.3355
   23GLOH   H04 8495   3.059   8.619   1.128 -0.5517  0.6704  0.8551
   23GLOH    O2 8496   2.874   8.538   1.181 -0.2299 -0.1643  0.2067
   23GLOH   H05 8497   2.824   8.606   1.229 -1.6369 -1.4346  0.5810
   23GLOH    C3 8498   3.046   8.599   1.340  0.1303  0.1864 -0.7586
   23GLOH   H06 8499   3.153   8.588   1.361  0.0320  1.1221  0.3234
   23GLOH   H07 8500   2.983   8.530   1.396  0.4744 -0.5877 -1.3057
   23GLOH    O3 8501   3.006   8.739   1.340 -0.1330 -0.0233 -0.2901
   23GLOH   H01 8502   3.007   8.765   1.433 -0.9192 -1.3090  0.1000
   24GLOH   H03 8503   2.948   0.158   1.572 -0.7525  0.2496  0.0107
   24GLOH    O1 8504   2.888   0.163   1.495 -0.3754  0.4769 -0.2679
   24GLOH    C1 8505   2.772   0.090   1.536  0.3676 -0.5965 -0.2117
   24GLOH   H02 8506   2.686   0.102   1.471 -0.1783 -2.0161  0.2353
   24GLOH   H08 8507   2.745   0.128   1.635 -1.4087  0.8532 -1.2314
   24GLOH    C2 8508   2.791  -0.063   1.555 -0.5452 -0.1157  0.0769
   24GLOH   H04 8509   2.885  -0.087   1.606  0.6547  0.4656 -1.8176
   24GLOH    O2 8510   2.676  -0.118   1.618  0.8739  0.3758 -0.4064
   24GLOH   H05 8511   2.695  -0.187   1.685  1.0522  0.3369 -0.4972
   24GLOH    C3 8512   2.814  -0.125   1.410 -0.0252 -0.4930 -0.2739
   24GLOH   H06 8513   2.880  -0.051   1.366 -1.6383  1.4602  0.4661
   24GLOH   H07 8514   2.726  -0.128   1.346  0.3216 -0.8884 -0.7290
   24GLOH    O3 8515   2.886  -0.250   1.414 -0.5374 -0.2315 -0.5660
   24GLOH   H01 8516   2.830  -0.319   1.454  1.3413 -0.6556  1.4769
   25GLOH   H03 8517   3.394  -0.485   0.929 -2.5825  3.1857  0.7355
   25GLOH    O1 8518   3.445  -0.462   1.009  0.1439 -0.4375  0.1735
   25GLOH    C1 8519   3.551  -0.366   0.969 -0.0315  0.2265 -0.4058
   25GLOH   H02 8520   3.535  -0.299   0.885 -3.0492 -0.3496 -0.3331
   25GLOH   H08 8521   3.628  -0.432   0.928  0.3133 -0.3825  1.1732
   25GLOH    C2 8522   3.615  -0.281   1.081  0.2378  0.0554 -1.0581
   25GLOH   H04 8523   3.532  -0.254   1.149 -0.0168  1.5842 -1.9714
   25GLOH    O2 8524   3.714  -0.352   1.163  0.4990  0.5791 -0.3065
   25GLOH   H05 8525   3.693  -0.447   1.163 -0.6478  0.8373  0.0738
   25GLOH    C3 8526   3.688  -0.151   1.040 -0.5414  0.2934 -0.0854
   25GLOH   H06 8527   3.770  -0.170   0.970 -1.6974 -1.5880 -0.9744
   25GLOH   H07 8528   3.720  -0.097   1.129  1.2111  0.8582 -1.0349
   25GLOH    O3 8529   3.598  -0.059   0.975 -0.5886 -0.5860  0.2491
   25GLOH   H01 8530   3.600  -0.060   0.878 -2.1721  0.9540  0.1807
   26GLOH   H03 8531   4.528   0.790   1.183 -1.0764 -2.5290  0.6220
   26GLOH    O1 8532   4.484   0.824   1.263 -0.4210 -0.6871  0.2354
   26GLOH    C1 8533   4.469   0.709   1.349 -0.4814 -0.5382  0.0846
   26GLOH   H02 8534   4.421   0.727   1.445  0.0916  0.2789  0.2241
   26GLOH   H08 8535   4.569   0.673   1.373  0.6912  1.1533 -1.9941
   26GLOH    C2 8536   4.391   0.597   1.278 -0.5717 -0.1670 -0.3657
   26GLOH   H04 8537   4.300   0.650   1.247 -0.9218  0.0148  0.9447
   26GLOH    O2 8538   4.460   0.535   1.172 -0.2945 -0.8322  0.2241
   26GLOH   H05 8539   4.438   0.588   1.094 -1.7968  0.1887  1.3107
   26GLOH    C3 8540   4.351   0.492   1.384 -0.5654  0.6282  0.6245
   26GLOH   H06 8541   4.445   0.446   1.416 -0.5669  0.9615  1.1066
   26GLOH   H07 8542   4.299   0.407   1.339  1.7371  0.5992 -2.1611
   26GLOH    O3 8543   4.288   0.560   1.486  0.6329  0.0560 -0.1840
   26GLOH   H01 8544   4.198   0.576   1.454 -0.1837 -2.4704  0.6887
   27GLOH   H03 8545   3.130   9.123   1.239  1.0389 -0.2254  0.1489
   27GLOH    O1 8546   3.091   9.213   1.243  0.5716 -0.3951 -0.4547
   27GLOH    C1 8547   3.156   9.302   1.154 -0.4382  0.6346 -0.0510
   27GLOH   H02 8548   3.252   9.320   1.201 -0.3118  0.6579 -0.3206
   27GLOH   H08 8549   3.104   9.398   1.149 -0.5318  0.5288 -1.2462
   27GLOH    C2 8550   3.173   9.241   1.015  0.4163 -0.4704  0.5019
   27GLOH   H04 8551   3.191   9.328   0.950 -5.4139  0.6694  0.2011
   27GLOH    O2 8552   3.291   9.157   1.008 -0.0208  0.2616 -0.1450
   27GLOH   H05 8553   3.366   9.204   0.966 -0.6964 -0.3653 -2.1220
   27GLOH    C3 8554   3.048   9.178   0.964  0.8924 -0.6013 -0.9106
   27GLOH   H06 8555   2.971   9.254   0.978  1.1646 -0.8039  2.1102
   27GLOH   H07 8556   3.031   9.095   1.032  0.6314  0.7080  0.6633
   27GLOH    O3 8557   3.049   9.134   0.832 -0.7782  0.4314  0.1835
   27GLOH   H01 8558   3.107   9.056   0.825 -0.5491  0.5149  1.0831
   28GLOH   H03 8559   4.542   0.280   1.629  1.0934 -0.9588 -0.3990
   28GLOH    O1 8560   4.583   0.366   1.650 -0.2414 -0.3858 -0.0773
   28GLOH    C1 8561   4.725   0.361   1.613 -0.1884  0.2341 -0.4978
   28GLOH   H02 8562   4.730   0.323   1.511  1.3177 -1.8744  0.3349
   28GLOH   H08 8563   4.778   0.284   1.669  0.7743  0.1501 -1.5042
   28GLOH    C2 8564   4.797   0.495   1.618 -1.0925  1.0801  1.0529
   28GLOH   H04 8565   4.808   0.515   1.726 -1.3842 -0.2481  1.3386
   28GLOH    O2 8566   4.931   0.476   1.565  0.0962 -0.1657  0.6428
   28GLOH   H05 8567   4.993   0.523   1.623 -0.1128  0.3621  0.4450
   28GLOH    C3 8568   4.722   0.612   1.556 -0.0148 -0.2345 -0.7974
   28GLOH   H06 8569   4.731   0.602   1.448  0.4465  1.1823 -0.8995
   28GLOH   H07 8570   4.774   0.701   1.591 -0.8407 -0.1131  0.1373
   28GLOH    O3 8571   4.584   0.621   1.611  0.6013 -0.0409  0.3600
   28GLOH   H01 8572   4.544   0.532   1.619  0.7485 -0.1118  0.2988
   29GLOH   H03 8573   4.217   0.973   1.443  2.5563 -0.0513  1.5654
   29GLOH    O1 8574   4.174   0.974   1.530  0.0279 -0.1352  0.3622
   29GLOH    C1 8575   4.255   0.905   1.627  0.8733  0.7798  0.6913
   29GLOH   H02 8576   4.361   0.915   1.605  0.9643 -0.3937  0.5329
   29GLOH   H08 8577   4.241   0.797   1.633 -1.7958  1.0185 -0.6471
   29GLOH    C2 8578   4.221   0.960   1.770 -0.2732  0.1743  0.3230
   29GLOH   H04 8579   4.114   0.984   1.781 -0.3533  0.1554 -0.3676
   29GLOH    O2 8580   4.263   0.873   1.873  0.1100  0.2349 -0.2868
   29GLOH   H05 8581   4.331   0.818   1.830  1.4367  0.9672  0.8142
   29GLOH    C3 8582   4.286   1.098   1.781  1.6141 -0.1298 -0.0253
   29GLOH   H06 8583   4.288   1.150   1.685 -1.2810  1.2750  0.6315
   29GLOH   H07 8584   4.390   1.095   1.814  0.7316  1.2781  3.0819
   29GLOH    O3 8585   4.217   1.170   1.885 -0.2527  0.0335 -0.4162
   29GLOH   H01 8586   4.222   1.119   1.967  3.9083  0.7057 -0.1317
   30GLOH   H03 8587   2.863   9.161   0.541 -0.3796  1.4865  0.4603
   30GLOH    O1 8588   2.835   9.152   0.448 -0.4821  0.1070  0.6103
   30GLOH    C1 8589   2.796   9.020   0.412 -0.1159 -0.2322 -0.6218
   30GLOH   H02 8590   2.808   8.989   0.309 -0.2708 -0.7813 -0.4766
   30GLOH   H08 8591   2.690   9.001   0.429 -0.1908  1.3058  0.8038
   30GLOH    C2 8592   2.884   8.912   0.478  0.7260  0.7257  0.1793
   30GLOH   H04 8593   2.898   8.927   0.586  2.6032 -2.5758  0.4335
   30GLOH    O2 8594   2.816   8.784   0.469  0.0629  0.7389  0.6569
   30GLOH   H05 8595   2.752   8.770   0.542 -1.2628  1.4862 -0.3384
   30GLOH    C3 8596   3.028   8.927   0.425 -0.3993  0.0325 -0.0914
   30GLOH   H06 8597   3.065   9.029   0.416  2.1324 -0.9628 -1.2638
   30GLOH   H07 8598   3.024   8.888   0.323 -1.6125  0.1115 -0.0843
   30GLOH    O3 8599   3.107   8.851   0.516 -0.1946  0.5656 -0.2438
   30GLOH   H01 8600   3.107   8.755   0.498  3.3134  0.6153 -0.9967
   31GLOH   H03 8601   3.792   0.876   1.788 -0.4738  1.5709  1.0619
   31GLOH    O1 8602   3.835   0.901   1.704 -0.6431  0.3792  0.6069
   31GLOH    C1 8603   3.776   1.015   1.645  0.5086 -0.5687 -0.1610
   31GLOH   H02 8604   3.734   1.083   1.720  3.4115 -0.5178  1.4968
   31GLOH   H08 8605   3.700   0.973   1.579  0.5718 -2.2007  0.7793
   31GLOH    C2 8606   3.887   1.087   1.563  0.0904 -0.1455  0.4895
   31GLOH   H04 8607   3.969   1.106   1.634  0.8114 -0.9862 -0.0941
   31GLOH    O2 8608   3.927   1.010   1.448  0.2337 -0.4315  0.4520
   31GLOH   H05 8609   4.023   0.999   1.458  0.6503  0.1352 -2.5022
   31GLOH    C3 8610   3.856   1.228   1.519 -0.3592 -0.3851  0.1120
   31GLOH   H06 8611   3.766   1.225   1.457 -0.4721  0.2349  0.2446
   31GLOH   H07 8612   3.931   1.267   1.451 -0.0241 -0.7891  0.2454
   31GLOH    O3 8613   3.835   1.320   1.620  0.7529 -0.1637  0.0694
   31GLOH   H01 8614   3.905   1.310   1.688 -0.4315 -0.3176  1.2731
   32GLOH   H03 8615   3.389   0.414   0.105 -0.2271 -0.5619 -0.9175
   32GLOH    O1 8616   3.339   0.425   0.188  0.3012 -0.4538 -0.6164
   32GLOH    C1 8617   3.362   0.559   0.234  0.3047 -0.1251 -0.3239
   32GLOH   H02 8618   3.300   0.580   0.321  1.2361 -1.0499  0.5847
   32GLOH   H08 8619   3.329   0.633   0.161  0.0790 -0.1173 -0.2129
   32GLOH    C2 8620   3.507   0.587   0.271 -0.4321  0.1290  0.2551
   32GLOH   H04 8621   3.569   0.560   0.184 -0.7861 -0.7865  0.2813
   32GLOH    O2 8622   3.531   0.731   0.294 -0.5471 -0.4206 -0.1661
   32GLOH   H05 8623   3.625   0.738   0.274 -0.7918 -1.8349 -1.9860
   32GLOH    C3 8624   3.552   0.496   0.379  0.4581 -0.3310 -0.7790
   32GLOH   H06 8625   3.518   0.393   0.370  0.0103 -0.5059  2.2587
   32GLOH   H07 8626   3.515   0.530   0.476  1.2805 -1.9014  0.1097
   32GLOH    O3 8627   3.693   0.492   0.389 -0.5262 -0.2658 -0.1604
   32GLOH   H01 8628   3.737   0.578   0.382  1.5815 -1.2321  0.6327
   33GLOH   H03 8629   3.187   9.422   2.770 -0.0139 -2.0145 -1.8021
   33GLOH    O1 8630   3.224   9.477   2.698 -0.6360  0.2386 -0.4448
   33GLOH    C1 8631   3.120   9.490   2.597 -0.1661 -0.4390  0.2265
   33GLOH   H02 8632   3.042   9.556   2.636 -2.2466 -3.0912  0.6925
   33GLOH   H08 8633   3.074   9.394   2.576 -1.7629  0.1728  0.8469
   33GLOH    C2 8634   3.186   9.552   2.473  0.1938  0.0599 -0.2020
   33GLOH   H04 8635   3.110   9.572   2.397  0.4832  1.0380 -0.2324
   33GLOH    O2 8636   3.244   9.681   2.503 -0.3796  0.4002  0.1841
   33GLOH   H05 8637   3.263   9.725   2.418  0.4615  0.4559  0.4006
   33GLOH    C3 8638   3.293   9.465   2.400  0.0427  0.0575  0.1711
   33GLOH   H06 8639   3.247   9.366   2.398 -0.1628  0.1770 -1.0827
   33GLOH   H07 8640   3.387   9.458   2.455  1.5838 -2.4218 -2.6347
   33GLOH    O3 8641   3.325   9.500   2.266  0.3272 -0.0251 -0.3488
   33GLOH   H01 8642   3.410   9.547   2.259  0.9084 -1.2322 -1.7402
   34GLOH   H03 8643   3.139  -0.375   0.889 -0.2085 -2.2024 -0.1238
   34GLOH    O1 8644   3.073  -0.370   0.961 -0.2498  0.1967 -0.2788
   34GLOH    C1 8645   3.140  -0.333   1.085 -0.3252  0.0230  0.2456
   34GLOH   H02 8646   3.221  -0.401   1.110 -0.6691 -0.3222  0.4273
   34GLOH   H08 8647   3.064  -0.354   1.161 -1.5486 -0.1541 -0.9958
   34GLOH    C2 8648   3.181  -0.187   1.100  0.3597  0.0549  0.1886
   34GLOH   H04 8649   3.095  -0.119   1.112 -0.2992 -0.8117  0.3741
   34GLOH    O2 8650   3.261  -0.168   1.218  0.0568  0.5691  0.1159
   34GLOH   H05 8651   3.219  -0.189   1.303 -3.1667  1.4774 -1.1932
   34GLOH    C3 8652   3.261  -0.123   0.985 -1.2960 -0.1420 -0.4043
   34GLOH   H06 8653   3.339  -0.194   0.960 -1.0188  0.9825 -2.8368
   34GLOH   H07 8654   3.317  -0.038   1.023  0.9916 -0.8886 -2.0475
   34GLOH    O3 8655   3.185  -0.088   0.871 -0.5580 -0.0232 -0.2505
   34GLOH   H01 8656   3.094  -0.064   0.895 -0.7614  0.0266 -1.0510
   35GLOH   H03 8657   4.349   0.900   1.278  1.3409  0.4497  2.6010
   35GLOH    O1 8658   4.269   0.941   1.317 -0.2999 -0.1401  0.0328
   35GLOH    C1 8659   4.202   1.034   1.223 -0.6211  0.6099 -0.6132
   35GLOH   H02 8660   4.273   1.096   1.167 -1.6575  0.0653 -2.5560
   35GLOH   H08 8661   4.140   1.109   1.273  2.3496  2.4315  0.4772
   35GLOH    C2 8662   4.124   0.957   1.111  0.4694 -0.4623 -0.0740
   35GLOH   H04 8663   4.081   0.864   1.152 -0.9317 -0.1507 -0.7831
   35GLOH    O2 8664   4.027   1.032   1.032 -0.2027  0.0079 -0.1331
   35GLOH   H05 8665   3.949   1.056   1.085 -1.0276 -0.5398 -1.0674
   35GLOH    C3 8666   4.225   0.901   1.015  0.0365  0.5144  0.3542
   35GLOH   H06 8667   4.175   0.835   0.944 -0.9085  0.7964  0.7524
   35GLOH   H07 8668   4.294   0.843   1.077 -0.0087 -0.3670 -0.4063
   35GLOH    O3 8669   4.306   1.006   0.950 -0.2157  0.0701  0.1372
   35GLOH   H01 8670   4.249   1.060   0.892  0.5511  0.6577 -0.0849
   36GLOH   H03 8671   3.678   1.082   2.613 -0.8462  0.5590 -1.9583
   36GLOH    O1 8672   3.640   0.994   2.595  0.1153 -0.3670  0.3938
   36GLOH    C1 8673   3.688   0.908   2.697  0.1361  0.5676 -0.1917
   36GLOH   H02 8674   3.616   0.903   2.779 -1.8795  0.9929 -1.8853
   36GLOH   H08 8675   3.788   0.930   2.734 -0.3414  1.4632  0.5958
   36GLOH    C2 8676   3.692   0.767   2.642  0.1002 -0.9981  0.6465
   36GLOH   H04 8677   3.757   0.767   2.554 -1.5952  0.9806 -0.6808
   36GLOH    O2 8678   3.746   0.676   2.744  0.2294 -0.1922 -0.1000
   36GLOH   H05 8679   3.819   0.621   2.711 -0.6946 -1.7237  0.3506
   36GLOH    C3 8680   3.550   0.719   2.601  0.3036  0.3416 -0.0404
   36GLOH   H06 8681   3.492   0.801   2.561  0.7320  1.1104  0.8768
   36GLOH   H07 8682   3.494   0.692   2.691  0.9543  2.5795  1.0849
   36GLOH    O3 8683   3.554   0.601   2.519 -0.4172 -0.4710  0.0117
   36GLOH   H01 8684   3.529   0.626   2.428 -1.8942  1.1659  0.8423
   37GLOH   H03 8685   3.710   0.686   1.899  1.5153 -0.9565  0.0496
   37GLOH    O1 8686   3.735   0.778   1.919 -0.2717 -0.5530  0.5726
   37GLOH    C1 8687   3.746   0.803   2.067 -0.0765 -0.1110 -0.1682
   37GLOH   H02 8688   3.734   0.715   2.130  0.0822 -0.1135 -0.1418
   37GLOH   H08 8689   3.663   0.868   2.096  3.6187  4.9222 -0.2037
   37GLOH    C2 8690   3.879   0.874   2.093 -0.1986  0.5627 -0.8875
   37GLOH   H04 8691   3.868   0.978   2.058 -1.8014  1.2278  1.4879
   37GLOH    O2 8692   3.901   0.885   2.236  0.1991 -0.0586  0.0007
   37GLOH   H05 8693   3.815   0.904   2.277 -0.5341 -1.8348 -0.6848
   37GLOH    C3 8694   3.992   0.791   2.031 -0.0632  0.2176 -0.3955
   37GLOH   H06 8695   3.982   0.808   1.924 -1.0796 -0.7419 -0.4666
   37GLOH   H07 8696   3.979   0.685   2.055  1.0944 -0.2574 -1.8286
   37GLOH    O3 8697   4.119   0.832   2.076  0.1224  0.5446  0.0089
   37GLOH   H01 8698   4.164   0.868   1.997 -0.2704  0.6262 -0.1818
   38GLOH   H03 8699   2.962   9.287   2.027  0.5094 -1.7592 -1.3832
   38GLOH    O1 8700   3.004   9.349   1.965 -0.0994 -0.1380 -0.1938
   38GLOH    C1 8701   3.078   9.268   1.865 -0.1314  0.0719  0.0256
   38GLOH   H02 8702   3.122   9.182   1.915 -0.9030  0.2182  0.9632
   38GLOH   H08 8703   3.164   9.323   1.825 -0.1176 -2.5124 -3.7564
   38GLOH    C2 8704   2.982   9.219   1.756 -0.2824  0.1383  0.0269
   38GLOH   H04 8705   2.951   9.301   1.689  1.4959  1.6212  0.9799
   38GLOH    O2 8706   3.051   9.113   1.680  0.0457 -0.0886 -0.7060
   38GLOH   H05 8707   2.989   9.078   1.614 -0.9208 -2.7327  1.5058
   38GLOH    C3 8708   2.844   9.163   1.809 -0.4258  0.6743  0.0383
   38GLOH   H06 8709   2.805   9.233   1.884  1.8138  1.4270  0.5484
   38GLOH   H07 8710   2.857   9.065   1.854 -1.0587  1.1446  1.2895
   38GLOH    O3 8711   2.743   9.125   1.715  0.0873 -0.0817  0.3187
   38GLOH   H01 8712   2.783   9.100   1.629 -0.7942 -2.1887  0.4939
   39GLOH   H03 8713   4.229   8.718   2.475 -0.1155  0.0239 -0.5529
   39GLOH    O1 8714   4.238   8.701   2.380 -0.3888 -0.2721 -0.5278
   39GLOH    C1 8715   4.253   8.562   2.370 -0.4630 -0.4187  0.0017
   39GLOH   H02 8716   4.170   8.512   2.419  0.0943  0.5925  2.0720
   39GLOH   H08 8717   4.342   8.538   2.429 -1.4980 -0.2493  1.6881
   39GLOH    C2 8718   4.256   8.515   2.225  0.1299  0.3297 -0.3005
   39GLOH   H04 8719   4.281   8.409   2.240 -2.2497 -0.3714 -0.9985
   39GLOH    O2 8720   4.120   8.513   2.171 -0.3880 -0.3909 -0.1074
   39GLOH   H05 8721   4.081   8.601   2.163  1.2747  0.4434  0.5403
   39GLOH    C3 8722   4.365   8.582   2.138 -0.6281 -0.4122 -0.9937
   39GLOH   H06 8723   4.351   8.548   2.035  0.4309  0.9287 -1.5976
   39GLOH   H07 8724   4.464   8.550   2.172 -0.6157 -0.5743 -1.1807
   39GLOH    O3 8725   4.349   8.728   2.141  0.3338  0.4831  0.1764
   39GLOH   H01 8726   4.310   8.748   2.228  0.7685  0.4685  0.3753
   40GLOH   H03 8727   3.097   8.616   0.387  0.1778 -0.9596 -0.0824
   40GLOH    O1 8728   3.120   8.611   0.482 -0.2021  0.1540  0.0728
   40GLOH    C1 8729   3.097   8.490   0.550  0.1414  0.8904  0.3897
   40GLOH   H02 8730   2.993   8.465   0.533  1.1703 -3.2065 -0.3638
   40GLOH   H08 8731   3.120   8.499   0.656 -1.1673  3.5645  0.4912
   40GLOH    C2 8732   3.174   8.376   0.486  0.0901  0.3261 -0.1168
   40GLOH   H04 8733   3.148   8.282   0.537 -0.5263 -1.4912 -3.6249
   40GLOH    O2 8734   3.152   8.352   0.342 -0.6750 -0.0506 -0.5763
   40GLOH   H05 8735   3.169   8.434   0.293 -1.8283  0.6216  0.1447
   40GLOH    C3 8736   3.327   8.384   0.529 -0.0554 -0.2885  0.1489
   40GLOH   H06 8737   3.371   8.469   0.477 -3.0996  1.3240  0.0810
   40GLOH   H07 8738   3.378   8.296   0.491  0.0735  0.1919 -0.8146
   40GLOH    O3 8739   3.351   8.377   0.672  0.3323 -0.2367  0.2407
   40GLOH   H01 8740   3.294   8.306   0.708  1.2325 -0.9200  0.3275
   41GLOH   H03 8741   3.228   0.101   0.076  0.7706  0.6532 -1.2954
   41GLOH    O1 8742   3.196   0.167   0.141  0.2165 -0.4455 -0.4203
   41GLOH    C1 8743   3.179   0.098   0.261 -0.1705 -0.2624  0.3920
   41GLOH   H02 8744   3.251   0.017   0.271  0.2050 -0.1346 -1.0825
   41GLOH   H08 8745   3.078   0.060   0.275 -0.3057  0.1431  0.5393
   41GLOH    C2 8746   3.211   0.191   0.380  0.0526  0.6400 -0.5510
   41GLOH   H04 8747   3.198   0.127   0.468  0.2118  2.2897  0.6951
   41GLOH    O2 8748   3.343   0.243   0.378 -0.5921 -0.0159  0.0934
   41GLOH   H05 8749   3.349   0.309   0.307  3.7537 -0.8032 -0.4507
   41GLOH    C3 8750   3.101   0.302   0.397  0.1573 -0.1151  0.8813
   41GLOH   H06 8751   3.099   0.365   0.308  0.4975 -1.2812  0.0476
   41GLOH   H07 8752   3.121   0.361   0.487 -1.2983  0.4144  0.8670
   41GLOH    O3 8753   2.971   0.244   0.410 -0.2155 -0.1983 -0.2118
   41GLOH   H01 8754   2.955   0.211   0.501 -0.9550  2.5303  0.7094
   42GLOH   H03 8755   3.273   0.783   2.726 -0.6522 -0.2154  0.9892
   42GLOH    O1 8756   3.202   0.734   2.680 -0.5425 -0.5314  1.1573
   42GLOH    C1 8757   3.191   0.787   2.545  0.4753 -0.3487 -0.0259
   42GLOH   H02 8758   3.285   0.768   2.493  0.0352 -0.6275 -0.7356
   42GLOH   H08 8759   3.185   0.896   2.537  0.2722 -0.1663  2.2726
   42GLOH    C2 8760   3.068   0.725   2.472  1.0668 -0.0561  0.4145
   42GLOH   H04 8761   2.980   0.719   2.538  0.7697  0.7055  0.0947
   42GLOH    O2 8762   3.030   0.804   2.353 -0.3437  0.2657 -0.1339
   42GLOH   H05 8763   3.101   0.790   2.288 -0.7151 -1.1972 -0.2363
   42GLOH    C3 8764   3.119   0.584   2.438  0.1417 -0.1516 -0.3261
   42GLOH   H06 8765   3.102   0.531   2.532  0.6291 -1.2388 -0.8441
   42GLOH   H07 8766   3.226   0.591   2.419  0.2640  2.7881  1.1279
   42GLOH    O3 8767   3.043   0.510   2.341  0.3230  0.0426  0.1833
   42GLOH   H01 8768   2.954   0.488   2.374  0.7944 -3.2009 -0.6329
   43GLOH   H03 8769   2.461   0.548   1.360 -2.4590 -1.5457  2.2403
   43GLOH    O1 8770   2.525   0.516   1.426  0.2449 -0.4597  0.2082
   43GLOH    C1 8771   2.533   0.379   1.414  0.0406 -0.1824 -0.6399
   43GLOH   H02 8772   2.438   0.347   1.457 -0.8878  0.3003 -2.2555
   43GLOH   H08 8773   2.617   0.334   1.467 -1.3857 -1.5832  0.5146
   43GLOH    C2 8774   2.534   0.338   1.264 -0.9609  0.4120 -0.2328
   43GLOH   H04 8775   2.609   0.405   1.219  0.4342 -0.5731  0.6097
   43GLOH    O2 8776   2.557   0.197   1.248  0.1254  0.4488  0.1670
   43GLOH   H05 8777   2.650   0.192   1.219  0.2465  0.2698  0.5906
   43GLOH    C3 8778   2.395   0.378   1.211 -0.0882 -0.4404 -0.7434
   43GLOH   H06 8779   2.317   0.342   1.278  0.4997  2.8119  1.7743
   43GLOH   H07 8780   2.378   0.339   1.110 -1.1868 -1.6904 -0.0958
   43GLOH    O3 8781   2.383   0.520   1.195 -0.1306  0.2365  0.5565
   43GLOH   H01 8782   2.407   0.535   1.102  0.6682 -1.3370  0.5065
   44GLOH   H03 8783   3.429   0.303   1.693  0.2843  0.4411  0.2098
   44GLOH    O1 8784   3.453   0.228   1.636 -0.1969  0.6521 -0.2756
   44GLOH    C1 8785   3.348   0.182   1.549  0.1757  0.0905 -0.3253
   44GLOH   H02 8786   3.295   0.260   1.495 -0.6663  0.0394  0.4310
   44GLOH   H08 8787   3.272   0.128   1.605 -0.2883  0.3691 -0.6888
   44GLOH    C2 8788   3.387   0.074   1.444 -0.7298 -0.5489 -0.5237
   44GLOH   H04 8789   3.423  -0.019   1.490  0.3124 -1.1710 -2.5141
   44GLOH    O2 8790   3.277   0.051   1.361  0.0417  0.2564  0.1881
   44GLOH   H05 8791   3.286  -0.027   1.304 -0.2078  0.4669 -0.1442
   44GLOH    C3 8792   3.500   0.130   1.361  0.4335  0.2181  0.7682
   44GLOH   H06 8793   3.459   0.209   1.298  3.0911  1.1141  0.0903
   44GLOH   H07 8794   3.534   0.053   1.292  1.1572  0.0923  1.2615
   44GLOH    O3 8795   3.610   0.191   1.435 -0.2655  0.0640  0.3103
   44GLOH   H01 8796   3.573   0.229   1.517  1.5422 -1.8447  2.0922
   45GLOH   H03 8797   3.699  -0.263   1.927 -0.2540 -0.9429  0.5793
   45GLOH    O1 8798   3.733  -0.223   2.009  0.1418 -0.1976  0.0549
   45GLOH    C1 8799   3.724  -0.336   2.098 -0.1625 -0.3560  0.5227
   45GLOH   H02 8800   3.825  -0.346   2.139 -0.3777 -0.8316  0.9301
   45GLOH   H08 8801   3.703  -0.431   2.051 -0.7233 -0.8488  1.7482
   45GLOH    C2 8802   3.618  -0.302   2.204  0.1885  0.0246 -0.4734
   45GLOH   H04 8803   3.530  -0.257   2.154  0.0878  3.4645  2.6315
   45GLOH    O2 8804   3.570  -0.425   2.264 -0.3027  0.0180 -0.5669
   45GLOH   H05 8805   3.644  -0.488   2.271 -1.2681 -1.0387  0.4187
   45GLOH    C3 8806   3.686  -0.221   2.314 -0.8291  0.3699 -0.4362
   45GLOH   H06 8807   3.759  -0.276   2.374 -0.4660  1.1693 -0.1396
   45GLOH   H07 8808   3.610  -0.194   2.387  0.7437 -0.5161  1.5637
   45GLOH    O3 8809   3.743  -0.095   2.263  0.2813  0.6287 -0.4254
   45GLOH   H01 8810   3.840  -0.106   2.263  0.3997  1.3478  2.6625
   46GLOH   H03 8811   3.519   8.435   2.026 -1.7624  0.1116  2.3581
   46GLOH    O1 8812   3.510   8.531   2.037 -0.8408  0.4379  0.4015
   46GLOH    C1 8813   3.452   8.598   1.924  0.6270  0.2786 -0.1827
   46GLOH   H02 8814   3.353   8.637   1.949 -0.6614 -1.4888 -2.3737
   46GLOH   H08 8815   3.434   8.534   1.838  0.2729  0.9305 -0.5982
   46GLOH    C2 8816   3.534   8.710   1.859  0.5543  0.2142  0.2888
   46GLOH   H04 8817   3.615   8.656   1.806  1.1157  1.8588 -0.5513
   46GLOH    O2 8818   3.448   8.765   1.759 -0.0368  0.0606 -0.1721
   46GLOH   H05 8819   3.385   8.830   1.794  0.8414  0.0350  1.5073
   46GLOH    C3 8820   3.590   8.803   1.965  0.8672 -0.5141 -0.7391
   46GLOH   H06 8821   3.674   8.853   1.917  0.3719 -1.3584 -2.5430
   46GLOH   H07 8822   3.623   8.742   2.050 -0.0000 -0.2329 -0.1964
   46GLOH    O3 8823   3.490   8.893   2.027  0.0535 -0.1487 -0.2634
   46GLOH   H01 8824   3.518   8.985   2.013 -0.4940 -0.1407 -1.4008
   47GLOH   H03 8825   3.159  -0.351   0.410  0.1196 -0.2875 -0.3339
   47GLOH    O1 8826   3.104  -0.283   0.368 -0.3091 -0.2905  0.2231
   47GLOH    C1 8827   3.132  -0.281   0.228  0.3730  0.0384 -0.3825
   47GLOH   H02 8828   3.169  -0.377   0.193 -1.5092 -0.7554 -0.2346
   47GLOH   H08 8829   3.219  -0.217   0.213 -0.1787  1.0876  0.7756
   47GLOH    C2 8830   3.016  -0.227   0.152  0.0836 -0.1672 -0.4475
   47GLOH   H04 8831   3.001  -0.123   0.185 -0.2055  0.2717 -1.9216
   47GLOH    O2 8832   3.051  -0.226   0.012 -0.1808 -0.0284  0.4013
   47GLOH   H05 8833   3.140  -0.190  -0.007 -0.5423  0.4598 -0.3757
   47GLOH    C3 8834   2.891  -0.320   0.170 -0.4300 -0.0785  0.6009
   47GLOH   H06 8835   2.868  -0.332   0.275 -0.5991 -0.1151  0.5592
   47GLOH   H07 8836   2.906  -0.415   0.118  0.1941  0.6721 -0.6365
   47GLOH    O3 8837   2.771  -0.261   0.120 -0.6758  0.3431 -0.0453
   47GLOH   H01 8838   2.713  -0.328   0.080 -0.7317 -0.5349  1.4848
   48GLOH   H03 8839   2.774   9.205   2.553 -0.3031  0.0130 -0.8783
   48GLOH    O1 8840   2.862   9.164   2.546  0.3598  1.1554  0.6854
   48GLOH    C1 8841   2.940   9.186   2.664  0.4220 -0.0731  0.5497
   48GLOH   H02 8842   2.915   9.286   2.701 -1.6708  0.3093 -1.7543
   48GLOH   H08 8843   3.046   9.190   2.640  0.1535  0.3093 -0.5833
   48GLOH    C2 8844   2.896   9.091   2.774  0.2002 -0.0774 -0.3119
   48GLOH   H04 8845   2.934   9.137   2.867 -0.8768 -0.3396  0.2631
   48GLOH    O2 8846   2.752   9.086   2.792  0.1412 -0.0182 -0.3656
   48GLOH   H05 8847   2.715   9.176   2.795  0.9334  0.2785  4.1010
   48GLOH    C3 8848   2.961   8.957   2.748  0.0543 -0.1238  0.3294
   48GLOH   H06 8849   2.934   8.928   2.647 -1.6565 -0.3003  0.8255
   48GLOH   H07 8850   2.923   8.881   2.817 -3.4109  1.7237  0.5245
   48GLOH    O3 8851   3.107   8.970   2.764 -0.2896  0.2038 -0.0769
   48GLOH   H01 8852   3.137   8.881   2.736  0.7614  0.0549  1.4580
   49GLOH   H03 8853   3.962   0.274   1.030  0.5107 -1.0861  2.1515
   49GLOH    O1 8854   4.036   0.336   1.048 -0.0432  0.1003  0.5237
   49GLOH    C1 8855   3.981   0.412   1.154  0.0304  0.0645  1.0248
   49GLOH   H02 8856   3.984   0.357   1.248 -0.3646 -1.9170 -0.0958
   49GLOH   H08 8857   3.876   0.431   1.136  0.3578  0.9140 -0.0027
   49GLOH    C2 8858   4.053   0.543   1.165 -0.3047 -0.6088  0.2178
   49GLOH   H04 8859   4.161   0.525   1.167 -0.2620 -0.3438  0.2742
   49GLOH    O2 8860   4.035   0.641   1.059 -0.1508 -0.0026 -0.2705
   49GLOH   H05 8861   3.951   0.622   1.014  0.8795 -1.5180 -1.5926
   49GLOH    C3 8862   4.010   0.614   1.295 -0.5533 -0.8936 -0.2431
   49GLOH   H06 8863   3.905   0.644   1.296 -0.0196  1.0368 -0.0770
   49GLOH   H07 8864   4.069   0.704   1.314 -1.3698 -0.1247 -1.2536
   49GLOH    O3 8865   4.037   0.531   1.408 -0.2763  0.0071  0.8410
   49GLOH   H01 8866   3.998   0.587   1.478  0.0129  0.4605  0.6443
   50GLOH   H03 8867   4.604   0.189   1.260 -0.9990  0.7407  0.5361
   50GLOH    O1 8868   4.586   0.094   1.274  0.0764  0.4582  0.0933
   50GLOH    C1 8869   4.644   0.033   1.152 -0.1052  0.6217 -0.4024
   50GLOH   H02 8870   4.753   0.027   1.158 -0.2033 -0.6803  0.1041
   50GLOH   H08 8871   4.607   0.081   1.061  0.3598 -3.7563 -3.0369
   50GLOH    C2 8872   4.591  -0.109   1.118  0.6076 -0.1559 -0.2975
   50GLOH   H04 8873   4.488  -0.095   1.080  0.3255 -0.0015  0.5079
   50GLOH    O2 8874   4.675  -0.174   1.018 -0.4232  0.2733 -0.1264
   50GLOH   H05 8875   4.650  -0.268   1.012 -0.5753  0.2305  1.0668
   50GLOH    C3 8876   4.574  -0.190   1.251 -0.6701  0.7047  0.1140
   50GLOH   H06 8877   4.498  -0.150   1.318  0.2288 -0.9266  2.1744
   50GLOH   H07 8878   4.670  -0.186   1.304 -1.5101  2.2557  1.5419
   50GLOH    O3 8879   4.525  -0.326   1.219  0.3878 -0.3672 -0.2445
   50GLOH   H01 8880   4.482  -0.365   1.297 -2.9736  0.0008 -1.7937
   51GLOH   H03 8881   3.027   9.502   1.939  1.6735 -0.0841  0.9971
   51GLOH    O1 8882   3.037   9.596   1.915  0.4072 -0.0896  0.4103
   51GLOH    C1 8883   2.926   9.637   1.821 -0.5005  0.4155 -0.0515
   51GLOH   H02 8884   2.925   9.566   1.739  0.0390  1.1297 -0.6754
   51GLOH   H08 8885   2.946   9.736   1.779  0.4668  0.4779  0.5235
   51GLOH    C2 8886   2.793   9.648   1.899 -0.1329 -0.0882 -0.7870
   51GLOH   H04 8887   2.804   9.679   2.004  0.1151  0.2420 -0.9106
   51GLOH    O2 8888   2.696   9.728   1.826  0.0939 -0.1582 -0.3220
   51GLOH   H05 8889   2.619   9.672   1.805  0.5164 -0.7974 -0.2068
   51GLOH    C3 8890   2.727   9.503   1.901 -0.6221 -0.1619  0.3899
   51GLOH   H06 8891   2.800   9.425   1.925 -1.5543 -0.6311  1.7918
   51GLOH   H07 8892   2.698   9.474   1.800  3.0696 -2.9119  0.0092
   51GLOH    O3 8893   2.610   9.514   1.981 -0.5885  0.3742 -0.3245
   51GLOH   H01 8894   2.531   9.546   1.933  0.1799 -0.0916 -1.9412
   52GLOH   H03 8895   2.409   8.801   2.209 -1.4102 -0.2915  0.6072
   52GLOH    O1 8896   2.391   8.896   2.195 -0.2178 -0.1998 -0.3115
   52GLOH    C1 8897   2.413   8.917   2.053  0.3608  0.1326  0.2252
   52GLOH   H02 8898   2.317   8.928   2.002  0.7465 -0.4361 -0.6289
   52GLOH   H08 8899   2.461   8.832   2.006 -3.0658 -1.4821 -0.4813
   52GLOH    C2 8900   2.497   9.043   2.032 -0.1742 -0.1778 -0.1277
   52GLOH   H04 8901   2.445   9.124   2.085  0.6939 -1.6809  3.1217
   52GLOH    O2 8902   2.624   9.020   2.099  0.5890  0.3150  0.2933
   52GLOH   H05 8903   2.601   9.020   2.193  1.0103 -0.9080  0.4131
   52GLOH    C3 8904   2.503   9.072   1.883  0.2426 -0.1494  0.3892
   52GLOH   H06 8905   2.551   8.984   1.839 -2.2373 -1.0501 -0.6320
   52GLOH   H07 8906   2.569   9.158   1.875  0.2525 -0.1361  0.6066
   52GLOH    O3 8907   2.372   9.101   1.825 -0.0023  0.3281  0.6454
   52GLOH   H01 8908   2.379   9.074   1.732  2.4403 -1.0374  1.1743
   53GLOH   H03 8909   3.680   8.350   1.625 -1.1063  0.5822  2.6299
   53GLOH    O1 8910   3.726   8.433   1.646  0.2539  0.2877  0.9436
   53GLOH    C1 8911   3.798   8.485   1.534 -0.1377 -0.6088  0.4262
   53GLOH   H02 8912   3.873   8.414   1.499  0.7042  0.1484  0.6685
   53GLOH   H08 8913   3.863   8.568   1.565 -0.6807 -1.0461  2.8421
   53GLOH    C2 8914   3.721   8.536   1.413  0.2939  0.0189  0.0456
   53GLOH   H04 8915   3.789   8.594   1.349  0.1172  0.5946  0.3760
   53GLOH    O2 8916   3.662   8.423   1.344 -0.5323 -0.0422  0.5573
   53GLOH   H05 8917   3.730   8.374   1.294 -0.4172  0.8799 -0.2139
   53GLOH    C3 8918   3.613   8.637   1.460  0.8833  0.3725 -0.5199
   53GLOH   H06 8919   3.568   8.582   1.543 -0.5967 -0.2553 -1.7171
   53GLOH   H07 8920   3.535   8.650   1.385 -0.5311 -0.4708  0.7695
   53GLOH    O3 8921   3.669   8.763   1.503  0.3037  0.6282  0.3393
   53GLOH   H01 8922   3.679   8.806   1.417  3.2192 -0.5520  0.0041
   54GLOH   H03 8923   4.139   8.665   1.567  1.0074  1.2884 -0.3368
   54GLOH    O1 8924   4.144   8.649   1.471  0.7442 -0.3497 -0.0840
   54GLOH    C1 8925   4.126   8.777   1.399 -0.1657 -0.1970  0.0281
   54GLOH   H02 8926   4.223   8.801   1.356  0.5879 -1.2358  1.1190
   54GLOH   H08 8927   4.114   8.855   1.474 -0.7946  0.1405 -0.4153
   54GLOH    C2 8928   4.022   8.785   1.291 -0.6664 -0.2205  0.1813
   54GLOH   H04 8929   3.926   8.760   1.340 -0.6233 -1.3720 -0.3074
   54GLOH    O2 8930   4.030   8.919   1.242 -0.0926 -0.0286  0.1309
   54GLOH   H05 8931   4.033   8.929   1.145 -0.8007  1.7675  0.2735
   54GLOH    C3 8932   4.070   8.686   1.188  0.4474 -0.5339 -0.2156
   54GLOH   H06 8933   4.159   8.726   1.140  0.5257  1.7507  1.7337
   54GLOH   H07 8934   3.993   8.669   1.112  1.6618 -0.2125 -1.5389
   54GLOH    O3 8935   4.079   8.557   1.249  0.2284  0.4700 -0.2203
   54GLOH   H01 8936   4.090   8.567   1.345 -1.5677 -3.7410  0.5465
   55GLOH   H03 8937   4.481   0.648   1.741  0.1222  1.4070  0.5164
   55GLOH    O1 8938   4.416   0.651   1.814 -0.3410 -0.1890  0.1992
   55GLOH    C1 8939   4.310   0.558   1.799  0.4263 -0.4216 -0.2376
   55GLOH   H02 8940   4.345   0.455   1.790  2.3452  0.0226  1.6686
   55GLOH   H08 8941   4.256   0.588   1.709  0.8208  1.8815  0.2693
   55GLOH    C2 8942   4.209   0.572   1.909 -0.0471 -0.4119  0.1254
   55GLOH   H04 8943   4.159   0.670   1.902  0.8525 -0.0648 -1.5723
   55GLOH    O2 8944   4.109   0.472   1.899  0.0288 -0.6663 -0.6761
   55GLOH   H05 8945   4.082   0.451   1.990  0.3835  1.6376 -0.0011
   55GLOH    C3 8946   4.268   0.570   2.048 -0.3557  0.0112  0.2237
   55GLOH   H06 8947   4.293   0.469   2.079  1.2653 -0.7008 -3.1283
   55GLOH   H07 8948   4.192   0.611   2.114 -1.5571  0.9545 -1.6781
   55GLOH    O3 8949   4.379   0.653   2.059 -0.2706 -0.2449  0.1283
   55GLOH   H01 8950   4.420   0.648   1.971 -0.1221  0.6834  0.1423
   56GLOH   H03 8951   2.858   8.420   2.665 -0.1449  0.3019 -0.0015
   56GLOH    O1 8952   2.918   8.417   2.588  0.0707 -0.4307  0.1924
   56GLOH    C1 8953   2.842   8.356   2.484  0.1002  0.2180 -0.4024
   56GLOH   H02 8954   2.764   8.297   2.531 -0.4508  0.8722 -0.4852
   56GLOH   H08 8955   2.910   8.290   2.430  0.4563  0.1511  0.1187
   56GLOH    C2 8956   2.775   8.445   2.378 -0.1381 -0.1080  0.1778
   56GLOH   H04 8957   2.855   8.507   2.335 -0.6218  1.4785  1.4936
   56GLOH    O2 8958   2.705   8.370   2.280 -0.1833 -0.3821 -0.3375
   56GLOH   H05 8959   2.747   8.282   2.277  2.1307  0.6130  1.3529
   56GLOH    C3 8960   2.685   8.543   2.455 -0.0126 -0.1990 -0.3280
   56GLOH   H06 8961   2.734   8.584   2.543  0.0638  2.2657 -1.4806
   56GLOH   H07 8962   2.602   8.485   2.496  0.5077 -0.3161  0.5615
   56GLOH    O3 8963   2.629   8.655   2.389  0.4740 -0.0453 -0.0559
   56GLOH   H01 8964   2.694   8.726   2.373  2.3577 -1.5001  0.9517
   57GLOH   H03 8965   2.606   9.608  -0.086 -0.9829 -0.1458  0.1123
   57GLOH    O1 8966   2.625   9.578   0.004  0.0343  0.3715  0.0810
   57GLOH    C1 8967   2.502   9.591   0.078  0.6303  0.3157  0.0615
   57GLOH   H02 8968   2.413   9.571   0.019 -0.4383 -1.5437  2.2370
   57GLOH   H08 8969   2.494   9.693   0.116  1.7936  0.7133 -0.6990
   57GLOH    C2 8970   2.507   9.488   0.189 -0.3789 -0.5154 -0.4227
   57GLOH   H04 8971   2.592   9.512   0.255 -1.2431 -2.4939  1.4606
   57GLOH    O2 8972   2.393   9.507   0.267 -0.5652  0.0362 -0.0367
   57GLOH   H05 8973   2.411   9.460   0.351 -0.5685  0.6917  0.3294
   57GLOH    C3 8974   2.526   9.340   0.156 -0.3794  0.5600  0.5705
   57GLOH   H06 8975   2.448   9.313   0.085  0.7477  0.6460 -0.7219
   57GLOH   H07 8976   2.506   9.276   0.242 -1.1924 -2.3647 -1.6862
   57GLOH    O3 8977   2.654   9.314   0.095 -0.1093  0.2488 -0.0462
   57GLOH   H01 8978   2.703   9.397   0.107 -0.2082  0.2648  0.2504
   58GLOH   H03 8979   3.536   9.455   1.090 -1.9316  0.0410  2.3128
   58GLOH    O1 8980   3.598   9.413   1.153  0.3319  0.4078  0.4094
   58GLOH    C1 8981   3.582   9.271   1.156  0.0898  0.5760 -0.4393
   58GLOH   H02 8982   3.478   9.243   1.141 -0.7513  1.0778  3.7453
   58GLOH   H08 8983   3.622   9.226   1.247 -0.6724 -0.4398 -0.5986
   58GLOH    C2 8984   3.662   9.205   1.041  0.3099 -0.4977 -0.0821
   58GLOH   H04 8985   3.769   9.220   1.062  0.4297 -1.7966  0.3419
   58GLOH    O2 8986   3.652   9.057   1.049 -0.2792 -0.1103 -0.1545
   58GLOH   H05 8987   3.598   9.023   0.975 -0.4885  0.3503 -0.2109
   58GLOH    C3 8988   3.638   9.269   0.906  0.2296 -0.1407  0.2467
   58GLOH   H06 8989   3.682   9.210   0.827  0.9769  0.9335 -0.1541
   58GLOH   H07 8990   3.696   9.362   0.904  0.5796 -0.3839 -0.9605
   58GLOH    O3 8991   3.499   9.299   0.875  0.2707 -0.0618 -0.1637
   58GLOH   H01 8992   3.493   9.345   0.789 -1.0885 -2.8755 -1.6432
   59GLOH   H03 8993   4.178  -0.207   0.813  0.8917 -0.4532  2.0746
   59GLOH    O1 8994   4.149  -0.123   0.854  0.0112 -0.1371  0.8113
   59GLOH    C1 8995   4.122  -0.026   0.751 -0.5544 -0.2140  0.2009
   59GLOH   H02 8996   4.070  -0.063   0.663 -0.5464 -2.3453  1.0608
   59GLOH   H08 8997   4.216   0.018   0.717  0.0193 -0.4458  1.4628
   59GLOH    C2 8998   4.040   0.091   0.811 -0.1909  0.3692 -0.3581
   59GLOH   H04 8999   4.102   0.125   0.895  1.5555 -3.4003  0.0075
   59GLOH    O2 9000   4.048   0.194   0.714 -0.3729  0.3745  0.0320
   59GLOH   H05 9001   4.027   0.279   0.755  0.6051  0.5257  0.2104
   59GLOH    C3 9002   3.900   0.062   0.873  0.5999  0.8431 -0.0089
   59GLOH   H06 9003   3.912  -0.026   0.935 -1.3813 -1.4940 -2.8333
   59GLOH   H07 9004   3.830   0.043   0.791 -0.4870 -2.5809  1.6233
   59GLOH    O3 9005   3.850   0.170   0.946 -0.1195 -0.4614 -0.1037
   59GLOH   H01 9006   3.787   0.140   1.014 -1.8256 -0.5394 -1.6619
   60GLOH   H03 9007   2.788   0.075   1.916  1.3154 -0.6864  1.3588
   60GLOH    O1 9008   2.843   0.151   1.890  0.3721 -0.4238  0.0707
   60GLOH    C1 9009   2.771   0.274   1.885  0.5370  0.2559  0.5020
   60GLOH   H02 9010   2.663   0.262   1.876  0.2886  1.9347  1.0668
   60GLOH   H08 9011   2.805   0.344   1.808 -0.7051  1.3403  0.9339
   60GLOH    C2 9012   2.770   0.349   2.018 -0.1054  0.5204 -0.0620
   60GLOH   H04 9013   2.700   0.431   1.999  1.3974  1.8694  0.1305
   60GLOH    O2 9014   2.713   0.265   2.120 -0.4092  0.4543 -0.3077
   60GLOH   H05 9015   2.738   0.174   2.100 -1.2829  0.0132  0.5731
   60GLOH    C3 9016   2.912   0.402   2.064  0.0338 -0.6176  0.2579
   60GLOH   H06 9017   2.977   0.315   2.061  2.4656  1.1447  0.5252
   60GLOH   H07 9018   2.895   0.428   2.168 -2.1137 -1.8074  0.2370
   60GLOH    O3 9019   2.957   0.501   1.971 -0.0792  0.4593 -0.0424
   60GLOH   H01 9020   2.917   0.587   1.994 -0.9197  0.8801 -2.8490
   61GLOH   H03 9021   3.311  -0.025   1.718 -1.2541 -0.2013  1.7576
   61GLOH    O1 9022   3.278  -0.110   1.683  0.0832  0.1504 -0.4580
   61GLOH    C1 9023   3.237  -0.178   1.800 -0.0294 -0.2787  0.0104
   61GLOH   H02 9024   3.319  -0.218   1.859  0.1893  1.9204  1.2563
   61GLOH   H08 9025   3.182  -0.267   1.769 -1.7687 -0.3578  3.0864
   61GLOH    C2 9026   3.149  -0.104   1.903  0.0156  0.2338 -0.1978
   61GLOH   H04 9027   3.061  -0.063   1.852 -0.4041  0.0785  0.3951
   61GLOH    O2 9028   3.118  -0.187   2.023  0.0376  0.1561  0.6413
   61GLOH   H05 9029   3.085  -0.271   1.985 -1.0638  1.2172 -0.8189
   61GLOH    C3 9030   3.224   0.010   1.958  0.1522 -0.6265 -0.7487
   61GLOH   H06 9031   3.295  -0.018   2.036 -3.0175 -1.7804  1.8286
   61GLOH   H07 9032   3.154   0.075   2.010  0.2324 -1.0325 -0.1269
   61GLOH    O3 9033   3.288   0.089   1.859  0.9539  0.7809  0.2521
   61GLOH   H01 9034   3.356   0.138   1.908  0.8797  0.3776  0.7620
   62GLOH   H03 9035   4.011   9.524   1.428  1.2158  0.3969 -1.0824
   62GLOH    O1 9036   3.943   9.494   1.364  0.6433  0.4231 -0.4872
   62GLOH    C1 9037   3.837   9.435   1.440  0.3883 -0.4883 -0.0891
   62GLOH   H02 9038   3.751   9.414   1.378  1.1461 -2.8610 -0.3608
   62GLOH   H08 9039   3.812   9.496   1.528 -0.6878 -1.6795  0.4474
   62GLOH    C2 9040   3.870   9.293   1.489 -0.2635  0.2593 -0.3086
   62GLOH   H04 9041   3.956   9.300   1.557 -0.0388 -1.0989 -0.4328
   62GLOH    O2 9042   3.754   9.258   1.564  0.9524  0.4090 -0.1841
   62GLOH   H05 9043   3.716   9.178   1.525  1.7819  0.8063 -1.8531
   62GLOH    C3 9044   3.903   9.191   1.378 -0.0931 -0.1519 -0.6682
   62GLOH   H06 9045   3.986   9.222   1.315  0.7449 -2.4105 -0.7173
   62GLOH   H07 9046   3.817   9.177   1.314 -0.2473 -2.2399 -0.0210
   62GLOH    O3 9047   3.938   9.067   1.440  0.0908  0.2729  0.5225
   62GLOH   H01 9048   3.969   9.013   1.365  2.3027  0.6174  1.1623
   63GLOH   H03 9049   4.573   0.773   0.986  2.0623 -1.3313 -1.0208
   63GLOH    O1 9050   4.612   0.737   1.068 -0.3011 -0.7359  0.3991
   63GLOH    C1 9051   4.750   0.738   1.050  0.2124  0.3223  0.4642
   63GLOH   H02 9052   4.803   0.720   1.143  0.9756  3.8652  0.7929
   63GLOH   H08 9053   4.776   0.843   1.030 -1.2174  0.6865  0.4689
   63GLOH    C2 9054   4.795   0.654   0.928 -0.8819  0.4068  0.1164
   63GLOH   H04 9055   4.743   0.689   0.838 -0.4625  0.3400 -0.1524
   63GLOH    O2 9056   4.936   0.658   0.907  0.2653 -0.0910  0.1485
   63GLOH   H05 9057   4.952   0.596   0.833 -0.7811  0.1652 -0.3036
   63GLOH    C3 9058   4.743   0.511   0.955 -0.0466  0.8662  0.6357
   63GLOH   H06 9059   4.647   0.506   1.006 -0.1036 -1.7605  0.3241
   63GLOH   H07 9060   4.815   0.472   1.027  3.0075  0.0112 -2.7413
   63GLOH    O3 9061   4.741   0.411   0.852  0.0215  0.0557  0.1868
   63GLOH   H01 9062   4.680   0.340   0.880  1.9504 -1.3154  1.0408
   64GLOH   H03 9063   4.137   0.271   2.566 -0.3820  2.0291 -1.6917
   64GLOH    O1 9064   4.143   0.198   2.502  0.0338  0.0779  0.4880
   64GLOH    C1 9065   4.061   0.091   2.549  0.1627 -0.4382  0.4472
   64GLOH   H02 9066   4.029   0.040   2.458  0.6284  0.2815 -0.1220
   64GLOH   H08 9067   3.976   0.130   2.606 -1.3390  0.9067 -2.5771
   64GLOH    C2 9068   4.126  -0.015   2.646  0.4340  0.9004 -0.2445
   64GLOH   H04 9069   4.160   0.021   2.744 -0.4187  2.4570 -0.5024
   64GLOH    O2 9070   4.040  -0.125   2.684  0.3258 -0.3181 -0.1222
   64GLOH   H05 9071   3.949  -0.091   2.690  0.7846  0.8658  0.3548
   64GLOH    C3 9072   4.249  -0.072   2.571 -0.3666 -0.9716  0.1656
   64GLOH   H06 9073   4.312   0.012   2.541 -0.4302 -1.1414 -0.4322
   64GLOH   H07 9074   4.214  -0.111   2.476  1.8227  0.6172 -1.3417
   64GLOH    O3 9075   4.334  -0.165   2.643  0.2835  0.0125 -0.1777
   64GLOH   H01 9076   4.291  -0.250   2.660  0.0712  0.3533  1.0485
   65GLOH   H03 9077   3.612   8.193   1.004  1.0092 -0.4617  1.4124
   65GLOH    O1 9078   3.664   8.267   0.968 -0.4463  0.1991  0.6508
   65GLOH    C1 9079   3.584   8.349   0.887 -0.1737  0.5266  0.0259
   65GLOH   H02 9080   3.481   8.337   0.921  0.2981  1.0731  1.7044
   65GLOH   H08 9081   3.591   8.314   0.785  3.0675  0.3900  0.2550
   65GLOH    C2 9082   3.625   8.492   0.897 -0.5134 -0.3287  1.2397
   65GLOH   H04 9083   3.605   8.534   0.997  0.3561  0.6576  1.0070
   65GLOH    O2 9084   3.771   8.495   0.874 -0.2929 -0.2340 -0.2504
   65GLOH   H05 9085   3.800   8.410   0.910 -0.7253 -0.2650  0.0238
   65GLOH    C3 9086   3.549   8.582   0.797 -0.2798 -0.1330  0.1650
   65GLOH   H06 9087   3.574   8.536   0.702  0.6716 -0.8037  0.7309
   65GLOH   H07 9088   3.586   8.685   0.803 -2.3828  0.7711 -1.4369
   65GLOH    O3 9089   3.409   8.574   0.813  0.2556 -0.3812  0.2854
   65GLOH   H01 9090   3.381   8.502   0.753  0.4997  0.4596 -0.8591
   66GLOH   H03 9091   3.821   8.688   0.161  0.1344 -0.7940 -0.5259
   66GLOH    O1 9092   3.785   8.671   0.250  0.2627 -0.5110 -0.4193
   66GLOH    C1 9093   3.777   8.780   0.340 -0.0411 -0.1129 -0.8526
   66GLOH   H02 9094   3.740   8.874   0.298  0.1670  0.6191  0.5669
   66GLOH   H08 9095   3.878   8.803   0.373  1.3325 -3.2563 -2.6646
   66GLOH    C2 9096   3.689   8.733   0.464  0.5443 -0.3124  0.3612
   66GLOH   H04 9097   3.720   8.633   0.498  0.3114 -0.8418 -0.9234
   66GLOH    O2 9098   3.699   8.827   0.569  0.0204 -0.3261 -0.5551
   66GLOH   H05 9099   3.753   8.776   0.632 -1.8389 -2.1740 -0.4134
   66GLOH    C3 9100   3.545   8.707   0.422  0.0083 -0.1893 -0.8266
   66GLOH   H06 9101   3.500   8.804   0.402 -0.0309 -0.2864 -1.2111
   66GLOH   H07 9102   3.486   8.665   0.503  0.0729 -2.3844 -1.8902
   66GLOH    O3 9103   3.536   8.626   0.311  0.1075  0.2325  0.1949
   66GLOH   H01 9104   3.620   8.643   0.265 -0.2505  0.5533 -0.3528
   67GLOH   H03 9105   4.124   0.553   2.388 -0.3791 -1.1591 -0.8339
   67GLOH    O1 9106   4.044   0.516   2.429 -0.0698 -0.1773  0.7121
   67GLOH    C1 9107   3.937   0.532   2.332  0.2163  0.7151  0.2962
   67GLOH   H02 9108   3.936   0.631   2.287  0.0868  2.0142  3.0668
   67GLOH   H08 9109   3.840   0.524   2.381 -0.7451  2.1846 -1.3242
   67GLOH    C2 9110   3.933   0.422   2.227  0.3423  0.7145  0.3530
   67GLOH   H04 9111   3.873   0.455   2.141  0.3498  0.2619  0.1742
   67GLOH    O2 9112   4.058   0.410   2.152  0.5330 -0.1051  0.5023
   67GLOH   H05 9113   4.134   0.378   2.203  0.3902 -0.2470  0.6267
   67GLOH    C3 9114   3.882   0.290   2.283  0.2345 -0.3657  0.7079
   67GLOH   H06 9115   3.939   0.264   2.373  0.7337 -0.4988  0.3589
   67GLOH   H07 9116   3.910   0.214   2.210  0.1183 -0.2482  0.5405
   67GLOH    O3 9117   3.741   0.295   2.303  0.0713 -0.4760 -0.2728
   67GLOH   H01 9118   3.719   0.238   2.379 -1.0358  2.0571  1.3949
   68GLOH   H03 9119   2.575   9.337   2.501 -0.1118 -0.0022  0.3693
   68GLOH    O1 9120   2.664   9.305   2.478 -0.1880  0.1965 -0.2024
   68GLOH    C1 9121   2.757   9.410   2.442 -0.3924 -0.1140 -0.4080
   68GLOH   H02 9122   2.854   9.372   2.409 -1.2819 -0.0867 -3.1834
   68GLOH   H08 9123   2.777   9.470   2.531  3.1321 -1.8154  0.0327
   68GLOH    C2 9124   2.714   9.503   2.324 -0.0088 -0.1748 -0.2760
   68GLOH   H04 9125   2.794   9.576   2.306  0.1615 -0.3410 -0.1937
   68GLOH    O2 9126   2.717   9.429   2.199  0.0585  0.2060  0.3013
   68GLOH   H05 9127   2.685   9.478   2.121 -1.1696 -1.3225 -0.1948
   68GLOH    C3 9128   2.586   9.570   2.359  0.0854 -0.4726 -0.4427
   68GLOH   H06 9129   2.506   9.497   2.370 -1.4041  1.3788  1.3661
   68GLOH   H07 9130   2.553   9.634   2.278  1.1326  1.4174  0.6024
   68GLOH    O3 9131   2.599   9.645   2.480  0.4314 -0.5871  0.4239
   68GLOH   H01 9132   2.620   9.738   2.457 -2.3067  0.3310  1.4353
   69GLOH   H03 9133   4.181   0.983   2.125  0.5225  0.5323  0.6025
   69GLOH    O1 9134   4.235   1.064   2.114  0.3968  0.5808  0.3493
   69GLOH    C1 9135   4.370   1.017   2.131  0.5738  0.5179 -0.0473
   69GLOH   H02 9136   4.433   1.060   2.053 -1.1575 -0.7130 -2.1639
   69GLOH   H08 9137   4.381   0.909   2.118 -2.4757  0.2599 -0.9345
   69GLOH    C2 9138   4.423   1.058   2.270 -0.5762  0.6137 -0.2592
   69GLOH   H04 9139   4.345   1.015   2.334  0.4335 -2.2392 -0.9028
   69GLOH    O2 9140   4.551   0.994   2.297  0.5114  0.1345 -0.2128
   69GLOH   H05 9141   4.533   0.899   2.294  1.7275 -0.2362  2.3669
   69GLOH    C3 9142   4.427   1.211   2.283  0.1461  0.4000 -0.2338
   69GLOH   H06 9143   4.479   1.254   2.198 -0.4391  1.0899 -0.2510
   69GLOH   H07 9144   4.487   1.231   2.371  1.8677  0.4374 -1.4085
   69GLOH    O3 9145   4.291   1.257   2.294  0.2371 -0.0555 -0.4671
   69GLOH   H01 9146   4.251   1.206   2.221 -0.7224  1.8735 -1.3136
   70GLOH   H03 9147   3.393   8.586   0.284 -0.9990  1.3250 -0.4153
   70GLOH    O1 9148   3.313   8.550   0.241 -0.5046  0.0331 -0.2819
   70GLOH    C1 9149   3.323   8.577   0.104 -0.0866 -0.4391 -1.4512
   70GLOH   H02 9150   3.300   8.494   0.037  0.9478  0.2545 -2.7108
   70GLOH   H08 9151   3.421   8.617   0.077  0.8137 -1.0834  0.7383
   70GLOH    C2 9152   3.216   8.680   0.076 -0.3078 -0.3263 -0.1299
   70GLOH   H04 9153   3.231   8.766   0.142 -2.2435  1.4600 -1.9626
   70GLOH    O2 9154   3.224   8.724  -0.056 -0.2194 -0.2911 -0.2536
   70GLOH   H05 9155   3.309   8.769  -0.065  0.5948 -1.7698 -0.1250
   70GLOH    C3 9156   3.078   8.612   0.097 -0.4171 -0.9611  0.5735
   70GLOH   H06 9157   3.082   8.512   0.055 -1.8083 -1.0401  0.6050
   70GLOH   H07 9158   3.012   8.668   0.031  0.8632  0.2482  0.3051
   70GLOH    O3 9159   3.024   8.605   0.230 -0.3777 -0.0701 -0.0219
   70GLOH   H01 9160   2.927   8.609   0.223 -0.5057  1.7360  2.0334
   71GLOH   H03 9161   4.063   9.576   1.651 -0.3988 -1.9754  0.4603
   71GLOH    O1 9162   4.092   9.553   1.561  0.2425  0.0429  0.1392
   71GLOH    C1 9163   4.230   9.578   1.544  0.0349  0.8447  0.1875
   71GLOH   H02 9164   4.284   9.553   1.635  0.3175 -3.2237 -1.0228
   71GLOH   H08 9165   4.254   9.684   1.531  1.1808  0.6183  0.3502
   71GLOH    C2 9166   4.293   9.516   1.415  0.0911  0.2889 -0.2782
   71GLOH   H04 9167   4.235   9.559   1.332  0.6552 -0.3260 -0.9960
   71GLOH    O2 9168   4.436   9.541   1.410  1.0192  0.0462 -0.2317
   71GLOH   H05 9169   4.473   9.493   1.485 -0.9179 -1.0705  0.0463
   71GLOH    C3 9170   4.267   9.368   1.415  0.4236 -0.8473 -0.0823
   71GLOH   H06 9171   4.307   9.330   1.321  1.1906 -2.6628  0.9387
   71GLOH   H07 9172   4.159   9.353   1.413  0.4882 -1.2599 -0.7678
   71GLOH    O3 9173   4.323   9.290   1.528  0.0022  0.3134  0.4180
   71GLOH   H01 9174   4.412   9.325   1.546  1.8728 -3.1415 -1.4767
   72GLOH   H03 9175   3.136   8.430   2.339  3.7751 -2.2607  1.4751
   72GLOH    O1 9176   3.117   8.370   2.265  0.1078  0.0406  0.3760
   72GLOH    C1 9177   3.181   8.425   2.151  0.0786  0.2415  0.5975
   72GLOH   H02 9178   3.282   8.385   2.161  1.4022  2.9296 -1.5546
   72GLOH   H08 9179   3.192   8.533   2.152 -0.8891  0.3422  1.6240
   72GLOH    C2 9180   3.122   8.379   2.016 -1.0828  0.2237 -0.0770
   72GLOH   H04 9181   3.016   8.405   2.031 -0.5257  1.1846  2.4739
   72GLOH    O2 9182   3.179   8.447   1.900 -0.3392  0.2194 -0.3806
   72GLOH   H05 9183   3.122   8.524   1.883 -1.4195 -0.2560  0.9986
   72GLOH    C3 9184   3.136   8.226   2.002 -0.0530 -0.0501 -0.0105
   72GLOH   H06 9185   3.241   8.200   2.014 -0.0447  0.9540  2.3394
   72GLOH   H07 9186   3.105   8.201   1.901  3.6679 -0.1377 -1.1913
   72GLOH    O3 9187   3.059   8.171   2.107  0.1934 -0.4300 -0.3808
   72GLOH   H01 9188   3.076   8.236   2.179 -3.5582  1.0993 -0.7516
   73GLOH   H03 9189   3.618   1.414   2.224  0.7906 -1.7518 -0.9977
   73GLOH    O1 9190   3.552   1.374   2.284  0.5728  0.0105 -0.0632
   73GLOH    C1 9191   3.592   1.379   2.426  0.2177 -0.9893 -0.5123
   73GLOH   H02 9192   3.517   1.334   2.492  0.6167 -0.8631  0.0331
   73GLOH   H08 9193   3.592   1.483   2.457  1.5882 -1.0679 -0.2383
   73GLOH    C2 9194   3.738   1.323   2.447 -0.8613 -0.4881 -0.4864
   73GLOH   H04 9195   3.740   1.215   2.426  3.6927 -0.4593 -0.6622
   73GLOH    O2 9196   3.834   1.385   2.356 -0.1776  0.3062 -0.2077
   73GLOH   H05 9197   3.922   1.351   2.381  0.5674  2.6196  0.5254
   73GLOH    C3 9198   3.779   1.332   2.595  0.1496 -1.4146  1.2776
   73GLOH   H06 9199   3.759   1.433   2.630  1.1109 -0.8595  0.2778
   73GLOH   H07 9200   3.887   1.319   2.606  0.5533  2.0708  2.0910
   73GLOH    O3 9201   3.706   1.238   2.677 -0.3745  0.5025  0.2883
   73GLOH   H01 9202   3.727   1.255   2.770  0.2031 -0.7822  0.3977
   74GLOH   H03 9203   3.257   8.271   1.111  1.0930  0.2236 -1.0246
   74GLOH    O1 9204   3.269   8.181   1.074  0.0763 -0.1316 -0.5005
   74GLOH    C1 9205   3.266   8.082   1.182 -0.7846 -0.2090 -0.3030
   74GLOH   H02 9206   3.224   7.985   1.155 -1.6655  0.9864 -3.5196
   74GLOH   H08 9207   3.197   8.128   1.253  0.3516  0.8785  0.1230
   74GLOH    C2 9208   3.407   8.071   1.252  0.7038  0.0156  0.3596
   74GLOH   H04 9209   3.444   8.169   1.286 -3.0204  1.5210  0.3067
   74GLOH    O2 9210   3.391   7.984   1.365  0.1110  0.1288 -1.2763
   74GLOH   H05 9211   3.311   8.016   1.410  1.4551 -1.3854  2.3411
   74GLOH    C3 9212   3.511   8.009   1.154 -0.2692 -0.6537 -0.0487
   74GLOH   H06 9213   3.471   7.912   1.127  0.3930 -1.3419  1.3907
   74GLOH   H07 9214   3.614   8.000   1.187  0.0181  1.2437 -0.3366
   74GLOH    O3 9215   3.519   8.085   1.036 -0.1554  0.0266  0.3171
   74GLOH   H01 9216   3.442   8.143   1.019 -1.2092 -1.6835 -1.0058
   75GLOH   H03 9217   3.676   0.468   1.904 -1.8891  0.8648  1.4564
   75GLOH    O1 9218   3.680   0.552   1.854 -0.1378 -0.2446 -0.3034
   75GLOH    C1 9219   3.685   0.529   1.713 -0.4795 -0.1142 -0.1727
   75GLOH   H02 9220   3.680   0.620   1.653  0.6202 -0.8277 -1.3682
   75GLOH   H08 9221   3.606   0.459   1.685 -1.7365  2.0071 -2.1028
   75GLOH    C2 9222   3.819   0.468   1.669  0.1907  0.9380  0.0937
   75GLOH   H04 9223   3.845   0.406   1.756  0.4176  1.0647  0.1167
   75GLOH    O2 9224   3.798   0.398   1.544  0.5095 -0.1140  0.1498
   75GLOH   H05 9225   3.880   0.351   1.521 -0.2358 -0.9248 -0.9120
   75GLOH    C3 9226   3.930   0.574   1.667  0.2101  0.6497 -0.5062
   75GLOH   H06 9227   4.028   0.529   1.649  0.8995  1.5876  0.7795
   75GLOH   H07 9228   3.936   0.603   1.772  0.9291 -0.6062 -0.1892
   75GLOH    O3 9229   3.919   0.683   1.578 -0.2456 -0.1650 -0.1938
   75GLOH   H01 9230   3.882   0.758   1.628 -1.0950 -0.5175 -0.2837
   76GLOH   H03 9231   4.033   0.736   0.586 -1.0356  0.2154 -1.2025
   76GLOH    O1 9232   4.044   0.832   0.599  0.4233 -0.1468  0.4250
   76GLOH    C1 9233   4.143   0.886   0.507  0.4571 -0.2888 -0.4314
   76GLOH   H02 9234   4.227   0.817   0.502  0.5418 -0.2907  0.8379
   76GLOH   H08 9235   4.182   0.974   0.556 -0.1777  0.4938 -1.3098
   76GLOH    C2 9236   4.098   0.910   0.362 -0.3900  0.0432  0.1370
   76GLOH   H04 9237   4.180   0.953   0.303  0.4061 -0.1553  1.0853
   76GLOH    O2 9238   4.068   0.783   0.301 -0.0582  0.2354 -0.2629
   76GLOH   H05 9239   4.149   0.731   0.313 -1.4673 -2.0566 -0.4598
   76GLOH    C3 9240   3.974   1.002   0.352 -0.1684  0.3241  0.1181
   76GLOH   H06 9241   4.004   1.098   0.394  3.2829 -0.1455 -1.1022
   76GLOH   H07 9242   3.895   0.967   0.418 -0.3654  2.0952  0.8414
   76GLOH    O3 9243   3.935   1.016   0.214 -0.1617 -0.2723  0.9731
   76GLOH   H01 9244   3.877   1.090   0.190 -0.5993 -0.8791  0.1235
   77GLOH   H03 9245   4.552   0.041   2.670 -1.8854  1.1328 -0.7622
   77GLOH    O1 9246   4.598   0.091   2.600  0.2375 -0.4153 -0.5222
   77GLOH    C1 9247   4.567   0.227   2.613  0.4664  0.2464  0.2831
   77GLOH   H02 9248   4.482   0.255   2.551  2.6221 -0.0586 -2.9334
   77GLOH   H08 9249   4.647   0.291   2.577 -0.2452  1.0559  0.1265
   77GLOH    C2 9250   4.544   0.265   2.759  0.3708  0.1478  0.3466
   77GLOH   H04 9251   4.443   0.230   2.784 -0.6478  3.3644  1.0174
   77GLOH    O2 9252   4.645   0.208   2.835 -0.3024  0.0729 -0.0738
   77GLOH   H05 9253   4.666   0.141   2.769  1.2418  0.2986  0.1728
   77GLOH    C3 9254   4.535   0.416   2.780  0.2460  0.1719  0.1180
   77GLOH   H06 9255   4.618   0.466   2.730  0.3409  0.3259  0.4348
   77GLOH   H07 9256   4.539   0.431   2.888 -2.0135  4.2598 -0.2412
   77GLOH    O3 9257   4.412   0.476   2.729 -0.2644 -0.8260 -0.0983
   77GLOH   H01 9258   4.398   0.561   2.776  0.7955 -0.3611 -0.6094
   78GLOH   H03 9259   2.802   0.803   1.161 -1.7451  1.6249 -0.8440
   78GLOH    O1 9260   2.772   0.754   1.082 -0.0638 -0.1529 -0.4058
   78GLOH    C1 9261   2.638   0.696   1.090  0.2110 -0.5849 -0.0254
   78GLOH   H02 9262   2.572   0.760   1.149  0.5194  0.4713 -0.8095
   78GLOH   H08 9263   2.648   0.602   1.145 -1.9078 -1.8981 -1.8279
   78GLOH    C2 9264   2.580   0.667   0.952 -0.7015  0.2625 -0.0859
   78GLOH   H04 9265   2.663   0.617   0.900 -0.1170  1.1332 -0.0038
   78GLOH    O2 9266   2.458   0.595   0.964  0.4064  0.2327 -0.3123
   78GLOH   H05 9267   2.459   0.532   0.890  1.6116 -2.8062  2.1771
   78GLOH    C3 9268   2.555   0.806   0.888 -0.5045 -0.5280  0.0016
   78GLOH   H06 9269   2.474   0.856   0.941 -1.8142 -2.2236 -0.3320
   78GLOH   H07 9270   2.525   0.788   0.784 -0.4072 -0.5644 -0.0200
   78GLOH    O3 9271   2.670   0.892   0.873 -0.1419 -0.3264  0.4114
   78GLOH   H01 9272   2.726   0.867   0.948  1.5235  3.4445  0.5400
   79GLOH   H03 9273   4.182   9.138   2.010  1.7208  0.6507 -0.6610
   79GLOH    O1 9274   4.188   9.184   2.096  0.6457  0.1966 -0.3411
   79GLOH    C1 9275   4.305   9.268   2.084 -0.0689 -0.4720  0.1040
   79GLOH   H02 9276   4.384   9.196   2.063 -0.8299 -0.5866 -2.5311
   79GLOH   H08 9277   4.318   9.317   2.180 -1.1528 -2.5524  1.3563
   79GLOH    C2 9278   4.298   9.371   1.966 -0.2261 -0.4055  0.0257
   79GLOH   H04 9279   4.259   9.314   1.881 -1.1513  2.1441 -1.3176
   79GLOH    O2 9280   4.199   9.469   2.005 -0.4217  0.1321  0.1908
   79GLOH   H05 9281   4.120   9.413   1.999  0.4274 -1.5810  3.8428
   79GLOH    C3 9282   4.440   9.428   1.936 -0.2336 -0.2675 -0.2601
   79GLOH   H06 9283   4.505   9.344   1.911 -1.7050 -0.9250 -1.9909
   79GLOH   H07 9284   4.476   9.470   2.030  1.7257  0.0894 -1.1566
   79GLOH    O3 9285   4.454   9.532   1.834  0.1639  0.9338 -0.1706
   79GLOH   H01 9286   4.385   9.597   1.856  0.0304  0.6231  0.3264
   80GLOH   H03 9287   3.672   8.845   2.431 -0.7148 -0.1479 -1.8002
   80GLOH    O1 9288   3.587   8.884   2.457 -0.1971 -0.0540 -0.2252
   80GLOH    C1 9289   3.512   8.888   2.334  0.3513  0.0780 -0.7107
   80GLOH   H02 9290   3.577   8.893   2.246  0.3100  1.9977 -0.6501
   80GLOH   H08 9291   3.443   8.972   2.323  1.9356  1.0992 -3.7070
   80GLOH    C2 9292   3.417   8.767   2.332  0.1458 -0.1570  0.4279
   80GLOH   H04 9293   3.350   8.785   2.416 -0.3567  0.2592 -0.0580
   80GLOH    O2 9294   3.335   8.756   2.211  0.3756 -0.1835  0.2225
   80GLOH   H05 9295   3.392   8.771   2.134 -1.3069  1.0305 -0.8423
   80GLOH    C3 9296   3.497   8.639   2.356  0.1455 -0.2627 -0.5970
   80GLOH   H06 9297   3.421   8.560   2.352 -1.0877  0.8217  0.9027
   80GLOH   H07 9298   3.531   8.646   2.459  1.4255  0.7235 -1.0825
   80GLOH    O3 9299   3.603   8.629   2.261  0.0205 -0.5137  0.0265
   80GLOH   H01 9300   3.574   8.583   2.179 -0.5924 -0.3579  0.1507
   81GLOH   H03 9301   3.227   9.140   0.381  0.2393 -0.2104 -0.1695
   81GLOH    O1 9302   3.229   9.164   0.475 -0.0422  0.1082 -0.2408
   81GLOH    C1 9303   3.198   9.303   0.512 -0.3011 -0.5373  0.6979
   81GLOH   H02 9304   3.192   9.328   0.618 -3.1025 -1.7552  0.8625
   81GLOH   H08 9305   3.097   9.317   0.475 -0.6763  1.9818  2.5467
   81GLOH    C2 9306   3.298   9.401   0.444  0.4082  1.1584  0.0241
   81GLOH   H04 9307   3.283   9.384   0.336 -3.3677  2.1558  0.3005
   81GLOH    O2 9308   3.262   9.538   0.479 -0.2935  0.2960 -0.1975
   81GLOH   H05 9309   3.321   9.604   0.439 -2.6065  1.3733 -1.9635
   81GLOH    C3 9310   3.449   9.376   0.475 -0.0821 -0.1043 -0.4573
   81GLOH   H06 9311   3.522   9.440   0.427  0.8384 -1.5422 -0.9870
   81GLOH   H07 9312   3.462   9.269   0.456  0.5550 -0.3434  1.2193
   81GLOH    O3 9313   3.467   9.387   0.619 -0.2129 -0.5781 -0.3052
   81GLOH   H01 9314   3.535   9.454   0.636  0.4163 -0.9544 -1.3585
   82GLOH   H03 9315   3.036   8.743   1.953 -0.1579  0.1112 -0.9169
   82GLOH    O1 9316   3.048   8.669   1.891 -0.1538 -0.3653 -0.3475
   82GLOH    C1 9317   2.948   8.660   1.791  0.1023 -0.4962 -0.0478
   82GLOH   H02 9318   2.849   8.659   1.837  0.2839  2.1781  0.4751
   82GLOH   H08 9319   2.959   8.566   1.737  0.0565 -0.4315 -0.1695
   82GLOH    C2 9320   2.947   8.774   1.687 -0.1396 -0.3184 -1.6440
   82GLOH   H04 9321   2.969   8.868   1.740 -1.6335 -2.0296  2.1766
   82GLOH    O2 9322   3.040   8.756   1.582  0.6893  0.2249  0.1945
   82GLOH   H05 9323   3.120   8.703   1.599  0.7132 -0.0129 -0.6309
   82GLOH    C3 9324   2.803   8.786   1.630  0.1440 -0.5642 -0.1014
   82GLOH   H06 9325   2.805   8.870   1.561 -1.4759 -0.1778  0.2784
   82GLOH   H07 9326   2.740   8.811   1.716  1.2106  1.8005  0.0282
   82GLOH    O3 9327   2.765   8.665   1.559 -0.0490 -0.5806 -0.1848
   82GLOH   H01 9328   2.735   8.598   1.623 -3.3556 -0.6088 -1.6992
   83GLOH   H03 9329   3.915   0.132   1.618 -1.2680  0.9930  1.8499
   83GLOH    O1 9330   3.991   0.154   1.674  0.4036 -0.5405  0.2311
   83GLOH    C1 9331   4.106   0.152   1.588  1.0031 -0.1325 -0.0385
   83GLOH   H02 9332   4.178   0.229   1.612  0.0266  1.2114 -1.3369
   83GLOH   H08 9333   4.087   0.169   1.482 -1.8079  2.5528  0.8330
   83GLOH    C2 9334   4.174   0.015   1.595  0.1402 -0.9462  0.8277
   83GLOH   H04 9335   4.101  -0.063   1.568 -0.1743 -1.1500  2.2237
   83GLOH    O2 9336   4.291   0.004   1.508  0.3493 -0.4037 -0.2105
   83GLOH   H05 9337   4.274   0.022   1.415  0.4454  2.3012  0.2735
   83GLOH    C3 9338   4.225  -0.016   1.736  0.0674 -0.0002 -0.6603
   83GLOH   H06 9339   4.280   0.069   1.776  0.5524  0.4944 -2.3301
   83GLOH   H07 9340   4.300  -0.094   1.727  1.1327  0.7077  1.8479
   83GLOH    O3 9341   4.124  -0.062   1.836 -0.1100  0.3956  0.2723
   83GLOH   H01 9342   4.091   0.023   1.870 -0.3760  1.3384 -2.1872
   84GLOH   H03 9343   4.043  -0.144   0.367 -2.8396  0.1639 -1.9097
   84GLOH    O1 9344   4.065  -0.057   0.329  0.0068  0.1980 -0.2814
   84GLOH    C1 9345   3.943   0.018   0.337  0.6864  0.0801  0.0272
   84GLOH   H02 9346   3.859  -0.050   0.323  1.1874 -0.4803 -0.2812
   84GLOH   H08 9347   3.938   0.085   0.251 -2.8595 -0.1743 -0.0442
   84GLOH    C2 9348   3.918   0.111   0.462  0.8542  0.2317 -0.2816
   84GLOH   H04 9349   3.914   0.048   0.551  1.1938  0.0594 -0.3880
   84GLOH    O2 9350   4.022   0.205   0.466  0.3214 -0.2236  0.5609
   84GLOH   H05 9351   4.051   0.218   0.557  1.4367 -0.6488  0.2794
   84GLOH    C3 9352   3.780   0.173   0.439  0.3936 -0.2685 -0.1110
   84GLOH   H06 9353   3.733   0.222   0.524 -0.7129 -0.6954 -0.4646
   84GLOH   H07 9354   3.709   0.091   0.426 -1.5776  1.1103  1.5225
   84GLOH    O3 9355   3.770   0.259   0.322  0.2270 -0.0539 -0.4583
   84GLOH   H01 9356   3.723   0.343   0.337  0.1300 -0.1952  0.0327
   85GLOH   H03 9357   4.576   9.761   0.570 -0.3652  0.2333  1.0371
   85GLOH    O1 9358   4.511   9.687   0.571  0.6167 -0.6380  0.8245
   85GLOH    C1 9359   4.508   9.629   0.697  0.1656  0.0767 -0.1986
   85GLOH   H02 9360   4.601   9.646   0.751  0.2095 -1.8929  0.3700
   85GLOH   H08 9361   4.501   9.521   0.687  0.1169  0.1590 -1.0660
   85GLOH    C2 9362   4.403   9.685   0.790  0.4240  0.3664  0.3126
   85GLOH   H04 9363   4.424   9.790   0.818 -2.2447  0.8566  0.6484
   85GLOH    O2 9364   4.264   9.691   0.739 -0.1556  0.3645  0.2680
   85GLOH   H05 9365   4.274   9.705   0.644  2.9367 -1.1861  0.3007
   85GLOH    C3 9366   4.396   9.605   0.922 -0.2640 -0.2175  0.3853
   85GLOH   H06 9367   4.364   9.505   0.894  0.4239 -0.0130 -1.1790
   85GLOH   H07 9368   4.331   9.653   0.995  2.9205  3.3599  1.0322
   85GLOH    O3 9369   4.532   9.600   0.978  0.6198  0.5259  0.4323
   85GLOH   H01 9370   4.526   9.624   1.073  1.9545 -0.4709  0.7912
   86GLOH   H03 9371   3.784   9.053   1.740  0.4433 -0.2080 -0.5412
   86GLOH    O1 9372   3.766   9.123   1.805 -0.3260 -0.7547 -0.1615
   86GLOH    C1 9373   3.889   9.172   1.866  0.0965 -0.2936 -0.5141
   86GLOH   H02 9374   3.971   9.191   1.796  1.8426  0.3944  1.6798
   86GLOH   H08 9375   3.937   9.098   1.929  0.2477 -0.3914 -0.7438
   86GLOH    C2 9376   3.872   9.301   1.942  0.1672 -0.1525 -0.3233
   86GLOH   H04 9377   3.787   9.293   2.011 -0.8440  0.5051 -1.4942
   86GLOH    O2 9378   3.985   9.340   2.022 -0.4561 -0.3574  0.0581
   86GLOH   H05 9379   4.026   9.261   2.060 -0.3180 -1.2176 -1.7781
   86GLOH    C3 9380   3.840   9.413   1.842 -0.5916 -0.3557 -0.4304
   86GLOH   H06 9381   3.925   9.422   1.774  0.6570 -1.9606  0.8570
   86GLOH   H07 9382   3.848   9.505   1.900 -2.6556 -1.2485  1.3664
   86GLOH    O3 9383   3.721   9.407   1.759  0.2478  0.1626  0.1961
   86GLOH   H01 9384   3.726   9.333   1.696 -1.0983 -0.8430  1.2516
   87GLOH   H03 9385   2.637   9.633   1.469 -0.7116 -2.5658 -2.6452
   87GLOH    O1 9386   2.716   9.599   1.514 -0.6039  0.2909 -0.5363
   87GLOH    C1 9387   2.694   9.461   1.527 -0.1764  0.2791 -0.2097
   87GLOH   H02 9388   2.594   9.445   1.568 -1.1995  0.3147 -2.5822
   87GLOH   H08 9389   2.774   9.419   1.587 -1.0303  1.1349  1.5461
   87GLOH    C2 9390   2.700   9.400   1.390  0.0281  0.1087  0.5118
   87GLOH   H04 9391   2.690   9.291   1.392 -1.4319  0.1492 -2.1068
   87GLOH    O2 9392   2.590   9.449   1.311  0.3506  0.2040  0.1522
   87GLOH   H05 9393   2.579   9.544   1.329  0.8930 -0.0389  1.8278
   87GLOH    C3 9394   2.840   9.419   1.319 -0.2754 -0.9436 -0.7299
   87GLOH   H06 9395   2.865   9.524   1.304  0.2726 -0.9776 -0.0609
   87GLOH   H07 9396   2.829   9.365   1.225  0.0815  0.3713 -1.5390
   87GLOH    O3 9397   2.941   9.347   1.396 -0.4790 -0.6144  0.3300
   87GLOH   H01 9398   2.999   9.298   1.336  0.0375 -0.4926  0.7208
   88GLOH   H03 9399   3.348   9.585   2.668  0.7192 -1.3193 -0.9679
   88GLOH    O1 9400   3.434   9.620   2.696  0.1280  0.0222 -0.7798
   88GLOH    C1 9401   3.503   9.493   2.716  0.2269 -0.8158 -0.2674
   88GLOH   H02 9402   3.494   9.436   2.624 -0.4639 -1.7080  0.3425
   88GLOH   H08 9403   3.456   9.428   2.790 -2.0825 -0.7854 -1.6649
   88GLOH    C2 9404   3.650   9.528   2.753 -0.2160  0.6576  0.6296
   88GLOH   H04 9405   3.633   9.586   2.845 -2.5153  1.2057 -0.1033
   88GLOH    O2 9406   3.724   9.408   2.772 -0.6491 -0.4204  0.4857
   88GLOH   H05 9407   3.733   9.357   2.689 -2.1971 -0.3767  0.2783
   88GLOH    C3 9408   3.716   9.615   2.645 -0.0254 -0.1037 -0.1208
   88GLOH   H06 9409   3.722   9.555   2.554  0.4451  0.7085 -0.6407
   88GLOH   H07 9410   3.815   9.646   2.677  0.0078 -0.3182 -0.0223
   88GLOH    O3 9411   3.646   9.731   2.617  0.0880 -0.2141  0.3338
   88GLOH   H01 9412   3.554   9.701   2.628  0.1048  0.3981  2.3540
   89GLOH   H03 9413   3.826   8.485   1.770  0.4129 -0.8554 -0.1126
   89GLOH    O1 9414   3.873   8.549   1.826 -0.0976 -0.5253 -0.0541
   89GLOH    C1 9415   3.913   8.481   1.946  0.6275  0.4906  0.2493
   89GLOH   H02 9416   3.826   8.445   2.001  1.2426 -2.7715 -0.7800
   89GLOH   H08 9417   3.966   8.551   2.011 -2.7506  3.0845  0.2975
   89GLOH    C2 9418   4.001   8.361   1.911  0.0972  0.0354 -0.2973
   89GLOH   H04 9419   4.092   8.391   1.857 -0.5875 -0.1445 -1.5671
   89GLOH    O2 9420   4.048   8.309   2.030  0.4479  0.3004  0.2574
   89GLOH   H05 9421   4.087   8.381   2.081  2.1661  0.4527 -1.1862
   89GLOH    C3 9422   3.932   8.261   1.820 -0.5114 -0.1636 -0.1922
   89GLOH   H06 9423   3.997   8.175   1.800  1.1195  0.4030  2.4104
   89GLOH   H07 9424   3.926   8.313   1.725  1.6229  1.2432  0.4147
   89GLOH    O3 9425   3.809   8.205   1.872 -0.5749  0.0154  0.0439
   89GLOH   H01 9426   3.826   8.150   1.951 -1.7421  0.4007  0.5824
   90GLOH   H03 9427   3.613   1.528   2.032  1.5674  1.5531 -0.4702
   90GLOH    O1 9428   3.679   1.469   2.073  0.1891  0.1415 -0.2273
   90GLOH    C1 9429   3.753   1.402   1.974  1.0323 -0.3969 -1.0735
   90GLOH   H02 9430   3.804   1.477   1.913  2.0134 -1.8260 -2.0563
   90GLOH   H08 9431   3.690   1.348   1.904 -2.1851  1.8022 -0.0074
   90GLOH    C2 9432   3.855   1.310   2.030  0.3026  0.3341 -0.1196
   90GLOH   H04 9433   3.945   1.362   2.065 -0.5021  2.8727 -1.7085
   90GLOH    O2 9434   3.803   1.230   2.141 -0.3303  0.1534  0.7333
   90GLOH   H05 9435   3.821   1.274   2.226 -1.2861  1.2786  0.3651
   90GLOH    C3 9436   3.903   1.217   1.924  0.0520 -0.4307 -0.1401
   90GLOH   H06 9437   3.822   1.154   1.887 -1.3657  0.0398  2.1060
   90GLOH   H07 9438   3.971   1.148   1.975 -2.7305 -3.0296  0.2341
   90GLOH    O3 9439   3.981   1.281   1.821  0.1603  0.0347  0.3716
   90GLOH   H01 9440   4.074   1.271   1.849  0.0387  0.6862  1.0179
   91GLOH   H03 9441   4.430   0.903   0.896 -0.1527 -0.6229 -0.3028
   91GLOH    O1 9442   4.493   0.830   0.881  0.2089 -0.3994  0.0976
   91GLOH    C1 9443   4.470   0.772   0.748 -1.0075 -0.2494 -0.1628
   91GLOH   H02 9444   4.555   0.709   0.722 -1.8448 -0.7561 -1.7392
   91GLOH   H08 9445   4.464   0.852   0.674 -1.5421 -0.4541 -0.3445
   91GLOH    C2 9446   4.352   0.677   0.725 -0.6856  0.2626 -0.3403
   91GLOH   H04 9447   4.265   0.743   0.734  0.9368  2.1621  1.7563
   91GLOH    O2 9448   4.363   0.618   0.598 -0.3221  0.1444  0.0573
   91GLOH   H05 9449   4.378   0.522   0.604  2.1209  0.4793 -0.1523
   91GLOH    C3 9450   4.343   0.563   0.821 -0.8713 -0.1995  0.2766
   91GLOH   H06 9451   4.440   0.514   0.816 -0.2049  1.0661  0.5760
   91GLOH   H07 9452   4.260   0.499   0.792 -0.3197 -1.2470  1.0128
   91GLOH    O3 9453   4.316   0.600   0.956  0.9700  0.2452 -0.0461
   91GLOH   H01 9454   4.220   0.612   0.962  0.7132 -2.2461  1.0757
   92GLOH   H03 9455   3.719   8.645   2.364  1.4504 -0.6702 -1.8273
   92GLOH    O1 9456   3.775   8.676   2.438 -0.3388 -0.1260 -0.6716
   92GLOH    C1 9457   3.902   8.710   2.375 -0.3078  0.0987 -0.7374
   92GLOH   H02 9458   3.944   8.630   2.315  0.9635 -0.1633  0.4795
   92GLOH   H08 9459   3.977   8.735   2.451 -0.2312 -0.2139 -0.7108
   92GLOH    C2 9460   3.883   8.825   2.278 -0.1119  0.5005 -0.2896
   92GLOH   H04 9461   3.818   8.791   2.196  0.7737 -0.0733 -0.7661
   92GLOH    O2 9462   3.836   8.939   2.355 -0.2436 -0.4616  1.0333
   92GLOH   H05 9463   3.796   9.013   2.305  1.4202  0.5972  1.2254
   92GLOH    C3 9464   4.019   8.848   2.211 -0.1176 -0.0579  0.2441
   92GLOH   H06 9465   4.092   8.867   2.290  0.9767 -1.3809 -0.4223
   92GLOH   H07 9466   4.006   8.940   2.155  3.6120  0.0967 -0.4940
   92GLOH    O3 9467   4.071   8.749   2.124  0.1130  0.5981 -0.1641
   92GLOH   H01 9468   4.021   8.759   2.041  0.8828 -3.1350 -1.1668
   93GLOH   H03 9469   2.131   9.651   2.112  1.0668  0.1703 -2.4664
   93GLOH    O1 9470   2.166   9.561   2.123 -0.3293 -0.1969 -0.6964
   93GLOH    C1 9471   2.236   9.522   2.007 -0.2549 -0.1661  0.2273
   93GLOH   H02 9472   2.318   9.587   1.977 -0.2221 -1.0448 -1.6609
   93GLOH   H08 9473   2.166   9.521   1.923 -0.8238  0.5576  0.6891
   93GLOH    C2 9474   2.297   9.382   2.024 -0.0314  0.4361  0.2237
   93GLOH   H04 9475   2.226   9.298   2.034  2.1951 -1.5508 -0.3695
   93GLOH    O2 9476   2.375   9.347   1.911 -0.5141 -0.2154  0.0313
   93GLOH   H05 9477   2.349   9.257   1.888 -0.1250  0.1550 -1.9658
   93GLOH    C3 9478   2.381   9.370   2.153  0.1105 -0.3831  0.2165
   93GLOH   H06 9479   2.428   9.467   2.169 -0.7677 -0.1094  1.2825
   93GLOH   H07 9480   2.465   9.302   2.137 -1.5694 -1.7664 -3.2513
   93GLOH    O3 9481   2.306   9.334   2.266 -0.6495 -0.4502 -0.8248
   93GLOH   H01 9482   2.236   9.400   2.253 -1.6670 -1.2586  0.4505
   94GLOH   H03 9483   3.323   0.401   1.324 -0.3970  0.1387  0.3658
   94GLOH    O1 9484   3.263   0.449   1.265 -0.0268 -0.2235 -0.3084
   94GLOH    C1 9485   3.224   0.570   1.332 -0.1845 -0.5762 -0.6576
   94GLOH   H02 9486   3.139   0.548   1.398  0.1365  0.3455  0.0705
   94GLOH   H08 9487   3.182   0.641   1.261 -0.3699  2.6875  2.5444
   94GLOH    C2 9488   3.334   0.637   1.416  0.1081  0.3417 -0.5076
   94GLOH   H04 9489   3.414   0.668   1.347  1.9964 -0.5418  1.2179
   94GLOH    O2 9490   3.287   0.753   1.487  0.5356  0.2125  0.5285
   94GLOH   H05 9491   3.203   0.722   1.527  0.5813 -0.2454  0.2745
   94GLOH    C3 9492   3.402   0.526   1.503  0.1415  0.1785 -0.0591
   94GLOH   H06 9493   3.325   0.478   1.563 -0.2921  2.6646  1.4530
   94GLOH   H07 9494   3.474   0.572   1.570 -0.9784 -0.5844  1.7197
   94GLOH    O3 9495   3.466   0.418   1.431 -0.1189 -0.5787 -0.4431
   94GLOH   H01 9496   3.555   0.448   1.406 -0.6105  2.8877  1.6717
   95GLOH   H03 9497   3.023   0.013   2.483  1.8690 -2.4455  0.4902
   95GLOH    O1 9498   3.085   0.027   2.409  0.0467  0.6415 -0.5284
   95GLOH    C1 9499   3.085   0.165   2.363 -0.7179  0.0166  0.4954
   95GLOH   H02 9500   3.042   0.229   2.440  0.3940  1.7057 -0.2553
   95GLOH   H08 9501   3.018   0.168   2.278  0.3393 -1.4957 -0.4050
   95GLOH    C2 9502   3.227   0.218   2.342  0.3362 -0.1383  0.0752
   95GLOH   H04 9503   3.268   0.145   2.272 -1.5841 -1.1136 -0.0760
   95GLOH    O2 9504   3.216   0.339   2.261  0.1877 -0.3954 -0.3096
   95GLOH   H05 9505   3.156   0.410   2.290 -2.6854 -1.5916 -3.0057
   95GLOH    C3 9506   3.309   0.224   2.466 -0.1826 -0.5423  0.3593
   95GLOH   H06 9507   3.249   0.256   2.551 -1.2007  2.2549 -1.3158
   95GLOH   H07 9508   3.389   0.297   2.456  1.2495 -1.6060  3.3272
   95GLOH    O3 9509   3.374   0.093   2.485  0.1733  0.4254  0.4746
   95GLOH   H01 9510   3.457   0.111   2.438  0.2071 -0.5546  0.1568
   96GLOH   H03 9511   2.491  -0.041   1.079 -2.2600  0.0868 -0.3217
   96GLOH    O1 9512   2.508  -0.033   0.983 -0.1513 -0.0823  0.0120
   96GLOH    C1 9513   2.621   0.053   0.970  0.7401  0.3498 -0.5436
   96GLOH   H02 9514   2.715   0.008   1.001  0.2423 -0.6934 -0.4952
   96GLOH   H08 9515   2.601   0.144   1.026  0.5046  0.9570 -1.5939
   96GLOH    C2 9516   2.631   0.089   0.821 -0.1661 -0.5167 -0.0837
   96GLOH   H04 9517   2.547   0.152   0.789  0.2941  1.5928  2.6261
   96GLOH    O2 9518   2.761   0.160   0.804  0.4620 -0.0734 -0.2077
   96GLOH   H05 9519   2.743   0.256   0.802  0.0038 -0.0975  2.0373
   96GLOH    C3 9520   2.635  -0.031   0.724  0.3027  0.0105  0.3008
   96GLOH   H06 9521   2.735  -0.072   0.728  1.4326  2.6879  0.3765
   96GLOH   H07 9522   2.617   0.011   0.625  2.3557 -1.4399 -0.6949
   96GLOH    O3 9523   2.524  -0.113   0.758  0.1696 -0.0437  0.1641
   96GLOH   H01 9524   2.519  -0.100   0.854 -1.0771  0.2787  0.0532
   97GLOH   H03 9525   2.853   0.179   2.590  0.1360  1.5638  0.0239
   97GLOH    O1 9526   2.776   0.188   2.532 -0.5081 -0.2608  0.5794
   97GLOH    C1 9527   2.771   0.088   2.431  0.1023 -0.7178  0.7669
   97GLOH   H02 9528   2.865   0.055   2.387 -0.3979 -0.9463 -0.1420
   97GLOH   H08 9529   2.716   0.127   2.345 -1.5757 -2.9880  0.7811
   97GLOH    C2 9530   2.699  -0.034   2.485 -0.5468  0.6309  0.3921
   97GLOH   H04 9531   2.602  -0.005   2.528 -0.7547  0.0677  0.3208
   97GLOH    O2 9532   2.677  -0.125   2.380 -0.2164  0.3916 -0.1505
   97GLOH   H05 9533   2.763  -0.148   2.339 -0.0305  0.2111  0.3430
   97GLOH    C3 9534   2.790  -0.103   2.587  0.4221  0.4197  0.6325
   97GLOH   H06 9535   2.744  -0.196   2.619 -2.7473  1.1294 -1.6091
   97GLOH   H07 9536   2.791  -0.049   2.682  0.3560  1.2305  0.1813
   97GLOH    O3 9537   2.922  -0.129   2.537 -0.1616  0.4899  0.1004
   97GLOH   H01 9538   2.971  -0.161   2.615 -2.5699 -1.5046  0.8462
   98GLOH   H03 9539   4.059   0.845   2.785 -0.9114 -1.4625 -1.9596
   98GLOH    O1 9540   4.143   0.850   2.736  0.0943 -0.2948 -0.1561
   98GLOH    C1 9541   4.130   0.944   2.625  0.2168 -0.0503  0.2127
   98GLOH   H02 9542   4.222   1.001   2.613 -0.7291  1.2449 -1.2093
   98GLOH   H08 9543   4.058   1.023   2.648  0.4269 -0.2536  1.5617
   98GLOH    C2 9544   4.088   0.860   2.499 -0.2225 -0.4148 -0.2886
   98GLOH   H04 9545   3.995   0.812   2.532  1.0262 -2.5270  0.2883
   98GLOH    O2 9546   4.066   0.961   2.396  1.1017  0.4434 -0.0263
   98GLOH   H05 9547   4.015   0.929   2.320  2.4021  1.1368 -1.2276
   98GLOH    C3 9548   4.197   0.759   2.463  0.0932 -0.5020 -0.0035
   98GLOH   H06 9549   4.191   0.683   2.541  0.7098 -0.1268  0.4152
   98GLOH   H07 9550   4.296   0.804   2.470  0.2160 -0.9075  0.9919
   98GLOH    O3 9551   4.175   0.692   2.337 -0.5330 -0.0950 -0.0170
   98GLOH   H01 9552   4.150   0.760   2.272 -1.4001 -1.1899 -0.8467
   99GLOH   H03 9553   4.040   0.328   0.366 -0.1194 -0.3661 -0.1872
   99GLOH    O1 9554   4.062   0.409   0.317 -0.5807 -0.2334 -0.1769
   99GLOH    C1 9555   4.141   0.366   0.205  0.2826 -0.0597  0.4372
   99GLOH   H02 9556   4.127   0.260   0.183 -0.1855 -0.2113  1.4558
   99GLOH   H08 9557   4.245   0.392   0.223  0.2779  0.1939  0.1126
   99GLOH    C2 9558   4.096   0.438   0.076  0.6203 -0.1463 -0.6417
   99GLOH   H04 9559   4.123   0.545   0.080 -0.5826  0.1252  0.3772
   99GLOH    O2 9560   4.175   0.388  -0.036  0.2541 -0.2548  0.2106
   99GLOH   H05 9561   4.267   0.415  -0.025  0.8376 -1.5763 -1.2566
   99GLOH    C3 9562   3.944   0.431   0.055  0.0824  0.7858 -0.2822
   99GLOH   H06 9563   3.889   0.459   0.145 -2.5088 -2.3930 -0.7863
   99GLOH   H07 9564   3.931   0.323   0.054  0.4318  0.7397  0.4853
   99GLOH    O3 9565   3.903   0.512  -0.057 -0.2198 -0.1291  0.1575
   99GLOH   H01 9566   3.971   0.501  -0.127  0.1904 -1.1195  0.7070
  100GLOH   H03 9567   2.945   8.227   0.482  1.0150  1.1703  1.3348
  100GLOH    O1 9568   2.868   8.266   0.528 -0.1802  0.3984  0.0201
  100GLOH    C1 9569   2.784   8.304   0.412 -0.4482  0.0770 -0.2385
  100GLOH   H02 9570   2.833   8.393   0.371 -0.7181  0.1875 -0.3184
  100GLOH   H08 9571   2.688   8.333   0.454  1.0025  2.6713  1.4232
  100GLOH    C2 9572   2.778   8.199   0.304 -0.3255  0.1002  0.9302
  100GLOH   H04 9573   2.746   8.104   0.349 -0.6385 -0.1317  0.2234
  100GLOH    O2 9574   2.678   8.238   0.202 -0.6011  0.0173  0.2291
  100GLOH   H05 9575   2.599   8.266   0.251 -1.6630 -1.6912 -0.4759
  100GLOH    C3 9576   2.921   8.173   0.251 -0.3469 -0.3409  0.2878
  100GLOH   H06 9577   2.950   8.268   0.208  2.0824 -2.1590 -2.3030
  100GLOH   H07 9578   2.918   8.109   0.162  1.1546 -0.0534  0.0229
  100GLOH    O3 9579   3.012   8.136   0.351  0.1098 -0.8166 -0.1652
  100GLOH   H01 9580   3.091   8.190   0.334  0.8650 -2.2415 -1.3431
  101GLOH   H03 9581   4.066   9.397   0.146  0.1838 -0.7190 -1.2897
  101GLOH    O1 9582   4.091   9.490   0.134 -0.2120 -0.4324  0.0400
  101GLOH    C1 9583   4.065   9.558   0.254 -0.7627  0.2063 -0.4686
  101GLOH   H02 9584   4.121   9.652   0.255 -0.9721  0.3232  1.4398
  101GLOH   H08 9585   4.104   9.488   0.328  4.1270 -0.5965 -3.5453
  101GLOH    C2 9586   3.920   9.597   0.290  0.1780  0.3419 -0.1598
  101GLOH   H04 9587   3.888   9.678   0.223  0.2025  1.0975  0.7372
  101GLOH    O2 9588   3.827   9.492   0.288 -0.7283  0.2663  0.0446
  101GLOH   H05 9589   3.801   9.472   0.196  0.6224 -2.9905  0.2724
  101GLOH    C3 9590   3.914   9.648   0.437 -1.1222  0.6837 -0.4176
  101GLOH   H06 9591   3.912   9.561   0.502 -1.6640  0.9891 -0.0249
  101GLOH   H07 9592   3.822   9.704   0.455 -1.9092 -0.0570 -2.0649
  101GLOH    O3 9593   4.018   9.744   0.465  0.0197  0.1849  0.1170
  101GLOH   H01 9594   4.092   9.690   0.499  0.2386 -0.0779 -0.7857
  102GLOH   H03 9595   2.736   8.913   1.248 -0.1621  1.2911  3.3061
  102GLOH    O1 9596   2.785   8.990   1.214  0.0086 -0.1653 -0.0494
  102GLOH    C1 9597   2.712   9.043   1.098 -0.4922 -0.9659  0.3929
  102GLOH   H02 9598   2.680   8.966   1.028 -3.9033  0.1759  0.5940
  102GLOH   H08 9599   2.786   9.100   1.042 -1.9636 -0.1553 -0.7673
  102GLOH    C2 9600   2.596   9.133   1.130  0.0278 -1.3725 -0.9620
  102GLOH   H04 9601   2.629   9.228   1.175 -1.0029 -1.6451  0.3941
  102GLOH    O2 9602   2.520   9.166   1.008 -0.1006  0.1692  0.4861
  102GLOH   H05 9603   2.506   9.262   1.015  0.9905  0.2403  1.8796
  102GLOH    C3 9604   2.506   9.064   1.236  0.2426 -1.0003  0.1698
  102GLOH   H06 9605   2.430   9.132   1.276 -1.0916 -0.3876 -3.2703
  102GLOH   H07 9606   2.566   9.049   1.326 -1.6089  1.3906  1.8956
  102GLOH    O3 9607   2.447   8.946   1.188 -0.2978 -0.3424  0.1475
  102GLOH   H01 9608   2.447   8.962   1.092  0.4676 -0.7205  0.0800
  103GLOH   H03 9609   3.826   9.065   0.662  2.4775 -0.9401 -1.1940
  103GLOH    O1 9610   3.864   9.074   0.752 -0.4806 -0.3932  0.0526
  103GLOH    C1 9611   3.963   8.975   0.772 -0.5646  0.7687 -0.2598
  103GLOH   H02 9612   4.061   9.021   0.780  0.1733 -0.2087 -2.9642
  103GLOH   H08 9613   3.960   8.912   0.683 -1.3410 -1.9586  1.6525
  103GLOH    C2 9614   3.933   8.885   0.892 -0.3635 -0.1589 -0.5300
  103GLOH   H04 9615   4.014   8.813   0.909  1.0577  1.8522  1.4775
  103GLOH    O2 9616   3.924   8.967   1.008 -0.1704 -0.1962  0.4637
  103GLOH   H05 9617   3.857   9.037   0.994 -0.5364 -0.9651 -1.8432
  103GLOH    C3 9618   3.806   8.799   0.875 -0.4107  0.3338 -0.0430
  103GLOH   H06 9619   3.715   8.858   0.867 -0.6915  0.1589  1.7236
  103GLOH   H07 9620   3.800   8.738   0.965 -2.6356 -0.5139 -0.7436
  103GLOH    O3 9621   3.826   8.715   0.760 -0.0043  0.4957 -0.1238
  103GLOH   H01 9622   3.812   8.627   0.800  1.8210 -0.1435 -0.8093
  104GLOH   H03 9623   3.334   1.179   0.377 -0.2324 -1.2360  0.2296
  104GLOH    O1 9624   3.380   1.130   0.306  0.4515  0.0297 -0.2239
  104GLOH    C1 9625   3.516   1.164   0.318  0.8635  0.1567  0.4688
  104GLOH   H02 9626   3.527   1.261   0.270 -0.9576 -0.0604 -0.4318
  104GLOH   H08 9627   3.578   1.090   0.266 -0.8794 -1.0036 -0.0022
  104GLOH    C2 9628   3.572   1.175   0.460 -0.6932 -0.3704 -0.1862
  104GLOH   H04 9629   3.558   1.087   0.524 -3.8739  0.6777  0.6860
  104GLOH    O2 9630   3.712   1.195   0.439 -0.0642  0.2649 -0.3734
  104GLOH   H05 9631   3.746   1.200   0.530 -0.1426 -1.3537 -0.2484
  104GLOH    C3 9632   3.508   1.292   0.532 -0.0215 -0.4327  0.2757
  104GLOH   H06 9633   3.536   1.382   0.478 -1.9784 -0.2767 -0.5400
  104GLOH   H07 9634   3.545   1.305   0.634 -1.5160  2.6230  0.4881
  104GLOH    O3 9635   3.369   1.279   0.531 -0.4651  0.1423  0.0461
  104GLOH   H01 9636   3.330   1.322   0.610  0.4884 -0.1774  0.7049
  105GLOH   H03 9637   2.749   8.872   0.747  1.1944 -1.4715 -0.7613
  105GLOH    O1 9638   2.698   8.803   0.700 -0.5650 -0.4981 -0.3247
  105GLOH    C1 9639   2.754   8.673   0.745  0.0180  0.1968 -0.6908
  105GLOH   H02 9640   2.842   8.647   0.686  0.4105 -1.6074  0.6574
  105GLOH   H08 9641   2.677   8.595   0.735  1.7650 -1.4594 -1.5811
  105GLOH    C2 9642   2.807   8.673   0.885 -0.5476  0.1708 -0.3532
  105GLOH   H04 9643   2.723   8.693   0.953 -0.0488 -2.2889  1.0508
  105GLOH    O2 9644   2.864   8.543   0.918  0.0114 -0.3368 -0.8403
  105GLOH   H05 9645   2.862   8.525   1.013  0.1498 -2.7676 -1.2671
  105GLOH    C3 9646   2.915   8.782   0.903 -0.2693  0.3147  0.7902
  105GLOH   H06 9647   3.011   8.759   0.858 -1.0609  0.1553 -0.8654
  105GLOH   H07 9648   2.916   8.791   1.012 -0.6573  1.4146  0.7120
  105GLOH    O3 9649   2.881   8.905   0.844 -0.0301 -0.0308  0.2685
  105GLOH   H01 9650   2.944   8.972   0.876  0.8537  0.1470 -1.8254
  106GLOH   H03 9651   3.933   9.211   0.788  2.2527  1.1405 -3.8332
  106GLOH    O1 9652   3.938   9.302   0.823  0.4190  0.0287 -0.3459
  106GLOH    C1 9653   4.015   9.314   0.945 -0.4903  0.0922  0.4057
  106GLOH   H02 9654   4.120   9.310   0.916 -0.4194 -0.0817  0.6870
  106GLOH   H08 9655   4.007   9.225   1.007  0.0874 -0.7384 -0.6872
  106GLOH    C2 9656   3.985   9.445   1.020  0.2703  0.2493 -0.1232
  106GLOH   H04 9657   3.879   9.458   1.044  0.1518 -0.5884 -0.1969
  106GLOH    O2 9658   4.062   9.452   1.140  0.3583 -0.4656 -0.0746
  106GLOH   H05 9659   4.014   9.483   1.219  1.4482 -0.8211  0.7280
  106GLOH    C3 9660   4.012   9.561   0.928  0.0190 -1.0457  0.0948
  106GLOH   H06 9661   4.112   9.558   0.885 -0.0222 -0.3155 -0.0606
  106GLOH   H07 9662   3.999   9.660   0.974  1.3882 -0.2047 -1.2931
  106GLOH    O3 9663   3.922   9.558   0.817  0.4409 -0.0729 -0.5160
  106GLOH   H01 9664   3.915   9.463   0.797 -0.8860 -0.0112 -0.3828
  107GLOH   H03 9665   3.520   8.831  -0.107 -1.0476 -0.4026 -0.6239
  107GLOH    O1 9666   3.457   8.860  -0.038 -0.1188 -0.5735  0.3015
  107GLOH    C1 9667   3.535   8.928   0.065  0.0719 -0.6296 -0.2806
  107GLOH   H02 9668   3.596   9.007   0.021 -0.3410 -0.1002  0.1032
  107GLOH   H08 9669   3.610   8.860   0.105  0.6404 -0.0730 -0.4015
  107GLOH    C2 9670   3.450   8.996   0.180  0.3720  0.1517 -0.5149
  107GLOH   H04 9671   3.379   8.920   0.217  1.6973 -1.6265 -1.5469
  107GLOH    O2 9672   3.538   9.025   0.297  0.1257  0.2646 -0.2002
  107GLOH   H05 9673   3.493   9.020   0.383 -1.8667  1.5006 -1.1339
  107GLOH    C3 9674   3.367   9.114   0.138  0.5775  0.4884  1.0785
  107GLOH   H06 9675   3.345   9.103   0.032 -0.9567  0.8784  1.3476
  107GLOH   H07 9676   3.427   9.205   0.144 -1.4449  1.8741  0.7630
  107GLOH    O3 9677   3.243   9.117   0.207 -0.0298  0.3244 -0.3310
  107GLOH   H01 9678   3.181   9.058   0.163 -0.8016  2.6357 -2.4511
  108GLOH   H03 9679   3.331   9.059   0.523 -0.5744 -0.6950  2.2602
  108GLOH    O1 9680   3.412   9.005   0.533  0.5622  0.3794 -0.5401
  108GLOH    C1 9681   3.454   9.043   0.670 -0.4136  0.0638  0.2316
  108GLOH   H02 9682   3.415   9.137   0.708 -1.1454 -0.8907  1.8757
  108GLOH   H08 9683   3.562   9.058   0.671 -0.3385 -0.5022  1.7383
  108GLOH    C2 9684   3.434   8.928   0.769 -0.4595  0.4935  0.4396
  108GLOH   H04 9685   3.503   8.848   0.739 -0.1821  0.4110  1.2941
  108GLOH    O2 9686   3.463   8.982   0.897  0.4150  0.2909 -0.4405
  108GLOH   H05 9687   3.379   9.017   0.932  0.7249  1.1803 -0.5716
  108GLOH    C3 9688   3.296   8.857   0.765 -0.5935  0.8278 -0.3966
  108GLOH   H06 9689   3.280   8.781   0.842 -1.3343  0.6692 -0.7043
  108GLOH   H07 9690   3.296   8.809   0.667 -0.4362  1.9657 -0.9558
  108GLOH    O3 9691   3.183   8.938   0.770  0.2809 -0.0989 -0.1175
  108GLOH   H01 9692   3.140   8.923   0.683  2.6968 -0.4207 -1.2967
  109GLOH   H03 9693   4.328   0.259   0.513 -2.3731  0.4479  0.8675
  109GLOH    O1 9694   4.365   0.341   0.551 -0.1914 -0.0275 -0.1280
  109GLOH    C1 9695   4.500   0.308   0.587  0.2660 -0.5700  0.1115
  109GLOH   H02 9696   4.527   0.386   0.659  0.1037  0.3027 -0.7567
  109GLOH   H08 9697   4.560   0.315   0.497  0.7869  0.8706  0.5575
  109GLOH    C2 9698   4.530   0.174   0.663  0.0880 -0.4038  0.3407
  109GLOH   H04 9699   4.488   0.090   0.606  2.2658  0.3604 -2.5216
  109GLOH    O2 9700   4.673   0.165   0.677 -0.1424 -0.0878 -0.3019
  109GLOH   H05 9701   4.700   0.083   0.723 -3.1440 -1.2397 -0.5057
  109GLOH    C3 9702   4.464   0.187   0.803  0.0953 -0.7735  0.0760
  109GLOH   H06 9703   4.456   0.094   0.861 -2.2382  0.2841  1.4877
  109GLOH   H07 9704   4.361   0.220   0.791 -0.4295 -1.9570  1.2249
  109GLOH    O3 9705   4.526   0.283   0.884  0.3466  0.4446  0.0973
  109GLOH   H01 9706   4.465   0.283   0.961 -0.8379 -0.4459 -0.8085
  110GLOH   H03 9707   3.479   0.130   2.105 -0.1469 -2.0960 -0.0568
  110GLOH    O1 9708   3.471   0.149   2.010 -0.4186 -0.4944  0.2727
  110GLOH    C1 9709   3.567   0.067   1.949 -0.1351  0.1823  0.1695
  110GLOH   H02 9710   3.544   0.069   1.842 -1.7509 -0.0266  0.5102
  110GLOH   H08 9711   3.552  -0.038   1.972  1.5685 -0.2341 -0.5084
  110GLOH    C2 9712   3.710   0.098   1.985 -0.5180  0.0867 -0.0482
  110GLOH   H04 9713   3.713   0.091   2.094  0.8641  0.9280 -0.0257
  110GLOH    O2 9714   3.803  -0.000   1.927 -0.0265 -0.2505  0.5472
  110GLOH   H05 9715   3.777  -0.085   1.965 -0.6942 -0.4078 -0.2416
  110GLOH    C3 9716   3.753   0.239   1.936  0.1873 -0.6266 -0.9480
  110GLOH   H06 9717   3.762   0.244   1.828 -0.4597  2.3912 -0.9029
  110GLOH   H07 9718   3.850   0.266   1.979  0.5455 -3.0981 -0.0732
  110GLOH    O3 9719   3.658   0.347   1.980 -0.7720 -0.2997  0.4475
  110GLOH   H01 9720   3.571   0.308   1.998 -1.0277  1.1456  2.4870
  111GLOH   H03 9721   3.517   0.959   1.268 -3.2599  1.4986 -0.9913
  111GLOH    O1 9722   3.543   0.991   1.179 -0.3652  0.1816 -0.6569
  111GLOH    C1 9723   3.426   0.998   1.092  0.5098  0.1721  0.9229
  111GLOH   H02 9724   3.338   0.990   1.156 -0.2299 -0.6543 -0.1835
  111GLOH   H08 9725   3.416   0.919   1.018 -0.9084  0.0313  1.2398
  111GLOH    C2 9726   3.417   1.125   1.011  0.2578 -0.1183 -0.1988
  111GLOH   H04 9727   3.498   1.126   0.938 -0.4718  0.7667 -1.0109
  111GLOH    O2 9728   3.295   1.143   0.937 -0.2729 -0.2644  0.0435
  111GLOH   H05 9729   3.282   1.072   0.872  1.1515  0.5198 -1.1267
  111GLOH    C3 9730   3.417   1.253   1.103  0.7802 -0.1876 -0.3957
  111GLOH   H06 9731   3.325   1.271   1.159  2.0831 -0.4079  1.9149
  111GLOH   H07 9732   3.418   1.341   1.039  0.7587 -2.2468 -3.3009
  111GLOH    O3 9733   3.530   1.247   1.191 -0.4331 -0.1383  0.3813
  111GLOH   H01 9734   3.579   1.163   1.178 -1.6018 -0.7970  0.1451
  112GLOH   H03 9735   2.722   9.571   0.484 -1.3045 -1.6467 -1.2178
  112GLOH    O1 9736   2.779   9.494   0.503  0.1463 -0.2225  0.4219
  112GLOH    C1 9737   2.874   9.521   0.611 -0.3761 -0.0675  0.1332
  112GLOH   H02 9738   2.888   9.628   0.628 -0.4086  0.1266 -1.0294
  112GLOH   H08 9739   2.973   9.483   0.587 -0.5738 -1.4757  1.4791
  112GLOH    C2 9740   2.830   9.462   0.744  0.3369  0.4202 -0.3252
  112GLOH   H04 9741   2.920   9.464   0.807  0.7424 -0.7120 -0.8542
  112GLOH    O2 9742   2.729   9.548   0.802  0.0145  0.5558  0.3926
  112GLOH   H05 9743   2.638   9.523   0.776  0.8172 -1.7171 -0.2893
  112GLOH    C3 9744   2.785   9.312   0.749 -0.1302 -0.9390 -0.2604
  112GLOH   H06 9745   2.684   9.310   0.708 -0.2553  1.6047 -0.1754
  112GLOH   H07 9746   2.766   9.282   0.852 -3.3551  0.9759 -0.2183
  112GLOH    O3 9747   2.877   9.222   0.684  0.5650  0.4943 -0.0491
  112GLOH   H01 9748   2.946   9.199   0.750 -0.9035  0.3904  1.4786
  113GLOH   H03 9749   3.066   8.920   2.105 -1.6848  1.2787  1.0085
  113GLOH    O1 9750   3.000   8.850   2.087  0.0318 -0.1131 -0.0346
  113GLOH    C1 9751   3.009   8.755   2.189 -0.9605  0.7723 -0.5085
  113GLOH   H02 9752   3.096   8.690   2.175 -0.8449  0.4683  1.4574
  113GLOH   H08 9753   2.929   8.680   2.191  0.2268 -0.5235 -0.7290
  113GLOH    C2 9754   3.004   8.825   2.329  0.1750  0.1040 -0.0430
  113GLOH   H04 9755   2.992   8.747   2.405 -1.3625 -0.6511 -1.0386
  113GLOH    O2 9756   3.130   8.895   2.352 -0.1406 -0.2038  0.3820
  113GLOH   H05 9757   3.200   8.845   2.306 -0.5057  0.4535 -0.9192
  113GLOH    C3 9758   2.889   8.927   2.336  0.6907  0.2111  0.1943
  113GLOH   H06 9759   2.904   8.996   2.253 -1.6403  1.6384  0.9086
  113GLOH   H07 9760   2.898   8.981   2.430 -0.7242  1.2613 -0.2623
  113GLOH    O3 9761   2.760   8.870   2.330 -0.5236 -1.0189  0.0569
  113GLOH   H01 9762   2.701   8.939   2.365  2.4037  0.4865  2.2149
  114GLOH   H03 9763   2.544   0.338   0.060  0.3548 -3.6344  0.5410
  114GLOH    O1 9764   2.528   0.349   0.156  0.0519 -0.2344  0.1806
  114GLOH    C1 9765   2.594   0.246   0.230  0.4069 -0.3628  0.2199
  114GLOH   H02 9766   2.521   0.166   0.239  1.7292 -1.5610  0.4537
  114GLOH   H08 9767   2.616   0.281   0.331 -0.8356 -0.9546  0.7048
  114GLOH    C2 9768   2.731   0.184   0.187 -0.8273  0.3098 -1.5113
  114GLOH   H04 9769   2.711   0.156   0.082 -3.3532 -0.1449 -0.9376
  114GLOH    O2 9770   2.840   0.272   0.201 -0.4183  0.2508  0.4451
  114GLOH   H05 9771   2.882   0.274   0.289  0.1873 -1.7030  0.2151
  114GLOH    C3 9772   2.761   0.054   0.273  0.3521  0.8885  0.1292
  114GLOH   H06 9773   2.755   0.087   0.377  0.5988  1.5004 -0.0445
  114GLOH   H07 9774   2.859   0.009   0.259 -0.0962 -0.8344  2.3365
  114GLOH    O3 9775   2.662  -0.046   0.235  0.6440  0.3203 -0.5125
  114GLOH   H01 9776   2.706  -0.117   0.185 -0.1911  0.3025 -1.2380
  115GLOH   H03 9777   3.995  -0.029   1.238  0.6269  2.2360  0.2513
  115GLOH    O1 9778   3.918  -0.014   1.297  0.3622 -0.0645  0.5281
  115GLOH    C1 9779   3.895  -0.137   1.355 -0.0554  0.9518  0.3766
  115GLOH   H02 9780   3.973  -0.163   1.426 -0.6695  0.3222  0.8311
  115GLOH   H08 9781   3.908  -0.216   1.281  0.6396  1.9286 -0.5487
  115GLOH    C2 9782   3.759  -0.150   1.413  0.1152  0.1149  0.1128
  115GLOH   H04 9783   3.681  -0.088   1.366 -0.7273  0.5607  2.0328
  115GLOH    O2 9784   3.701  -0.280   1.420 -0.7360  0.6177 -0.1386
  115GLOH   H05 9785   3.698  -0.318   1.330 -1.3546 -1.5348  0.7666
  115GLOH    C3 9786   3.777  -0.097   1.556 -0.1782 -0.8279 -0.5373
  115GLOH   H06 9787   3.855  -0.155   1.604  1.3976  1.1039 -0.7039
  115GLOH   H07 9788   3.685  -0.117   1.611 -1.1908  0.5993 -1.6733
  115GLOH    O3 9789   3.808   0.047   1.552 -0.3259 -0.0676 -0.6486
  115GLOH   H01 9790   3.733   0.097   1.517 -0.9504  0.4750  1.3579
  116GLOH   H03 9791   3.193   0.414   1.136 -0.9369 -0.5981  0.8897
  116GLOH    O1 9792   3.137   0.388   1.061 -0.3828 -0.6883  0.5026
  116GLOH    C1 9793   3.146   0.242   1.067  0.9011  0.1200 -0.2824
  116GLOH   H02 9794   3.248   0.222   1.101  0.7646  0.3887  0.2901
  116GLOH   H08 9795   3.128   0.191   0.973  0.8411 -1.6051  0.6419
  116GLOH    C2 9796   3.046   0.177   1.168 -0.6129  0.1856  0.5393
  116GLOH   H04 9797   3.040   0.067   1.160 -0.1411  0.2518 -1.0924
  116GLOH    O2 9798   3.078   0.207   1.304 -0.2507 -0.3602 -0.2707
  116GLOH   H05 9799   3.163   0.169   1.333 -0.0924  0.8996  0.9967
  116GLOH    C3 9800   2.912   0.238   1.141 -0.0357 -0.0391 -0.1715
  116GLOH   H06 9801   2.875   0.231   1.039 -0.0139 -0.3148 -0.1608
  116GLOH   H07 9802   2.918   0.346   1.155 -0.0630 -0.0627  0.0281
  116GLOH    O3 9803   2.810   0.180   1.227  0.0817 -0.2083  0.3389
  116GLOH   H01 9804   2.860   0.169   1.310  0.3426  2.4111  0.5497
  117GLOH   H03 9805   3.681   0.104   2.544 -0.2675 -0.3115  1.1783
  117GLOH    O1 9806   3.634   0.183   2.513  0.5807  0.0302  0.7482
  117GLOH    C1 9807   3.691   0.291   2.588 -0.2245 -0.1362  0.1316
  117GLOH   H02 9808   3.706   0.371   2.516  0.1601 -1.5566 -1.4088
  117GLOH   H08 9809   3.790   0.267   2.627  0.7631 -0.3592 -2.4170
  117GLOH    C2 9810   3.614   0.324   2.722 -0.4150 -0.2921 -0.2558
  117GLOH   H04 9811   3.689   0.374   2.785 -1.9886  0.7153  0.8541
  117GLOH    O2 9812   3.499   0.405   2.709  0.2707 -0.5413 -0.4701
  117GLOH   H05 9813   3.516   0.463   2.632 -0.9003 -0.4486 -0.6761
  117GLOH    C3 9814   3.559   0.193   2.797  0.7460  0.8668 -0.1935
  117GLOH   H06 9815   3.493   0.137   2.731 -0.5119  0.9802  0.9545
  117GLOH   H07 9816   3.491   0.230   2.874 -0.6901  1.3021 -1.6496
  117GLOH    O3 9817   3.660   0.111   2.852  0.7673 -0.2391 -0.3092
  117GLOH   H01 9818   3.691   0.168   2.924  2.2030  0.1904 -1.2474
  118GLOH   H03 9819   4.184   0.091   0.403 -0.7920  2.5861  2.5428
  118GLOH    O1 9820   4.275   0.121   0.416  0.5056 -0.4062  0.8260
  118GLOH    C1 9821   4.360   0.087   0.306 -0.5105  0.0130 -0.0237
  118GLOH   H02 9822   4.449   0.148   0.316 -0.1382 -0.7203  1.3297
  118GLOH   H08 9823   4.317   0.110   0.208  0.5460 -1.4584 -0.8590
  118GLOH    C2 9824   4.408  -0.058   0.313 -0.1886  0.5641  0.1970
  118GLOH   H04 9825   4.447  -0.089   0.412  0.1064 -0.7769 -0.3259
  118GLOH    O2 9826   4.303  -0.149   0.276 -0.6448 -0.6322 -0.2904
  118GLOH   H05 9827   4.217  -0.105   0.286  0.7169  1.4424  2.8082
  118GLOH    C3 9828   4.525  -0.071   0.211  0.2474  0.3187  0.3222
  118GLOH   H06 9829   4.565  -0.172   0.205  1.8044  1.0347 -1.9505
  118GLOH   H07 9830   4.605  -0.005   0.245  1.2608 -0.7035 -0.0271
  118GLOH    O3 9831   4.486  -0.034   0.080 -0.0467 -0.0766 -0.0674
  118GLOH   H01 9832   4.417  -0.094   0.046 -0.6565 -0.4068  1.6920
  119GLOH   H03 9833   3.788   1.486   1.557 -0.9246 -1.9858  0.0912
  119GLOH    O1 9834   3.705   1.531   1.534 -0.0822 -0.5585 -0.2317
  119GLOH    C1 9835   3.679   1.500   1.392 -0.6744 -0.3325 -0.0572
  119GLOH   H02 9836   3.689   1.392   1.384  1.2822 -0.2097  0.4908
  119GLOH   H08 9837   3.752   1.553   1.330 -0.4480  2.5124  2.5410
  119GLOH    C2 9838   3.537   1.530   1.347 -0.8894 -0.3556  0.0044
  119GLOH   H04 9839   3.518   1.637   1.364 -1.0971 -0.9206  3.6625
  119GLOH    O2 9840   3.509   1.508   1.205 -0.7691 -0.3823  0.0752
  119GLOH   H05 9841   3.515   1.412   1.189 -2.5946 -0.6286  0.7850
  119GLOH    C3 9842   3.441   1.455   1.434 -0.1089 -0.2903  0.1796
  119GLOH   H06 9843   3.456   1.347   1.430 -0.6546 -0.3005 -2.5084
  119GLOH   H07 9844   3.336   1.471   1.409  0.5456  1.9754 -1.2827
  119GLOH    O3 9845   3.452   1.496   1.568  0.5825  0.0354 -0.2520
  119GLOH   H01 9846   3.538   1.543   1.571 -0.3020  1.7289 -0.8596
  120GLOH   H03 9847   3.714   0.560   0.997 -1.1824  0.6685 -1.1151
  120GLOH    O1 9848   3.796   0.598   0.960 -0.4169 -0.5117 -0.6433
  120GLOH    C1 9849   3.766   0.726   0.899 -0.6719 -0.3820  0.5162
  120GLOH   H02 9850   3.856   0.786   0.909 -0.8612  0.2295 -1.3774
  120GLOH   H08 9851   3.688   0.791   0.938  0.4745  2.1295 -1.2467
  120GLOH    C2 9852   3.738   0.712   0.751  0.3321  1.2341  0.0290
  120GLOH   H04 9853   3.827   0.666   0.706  0.9422  2.3874  0.0166
  120GLOH    O2 9854   3.619   0.639   0.724  0.1122 -0.4733 -0.3873
  120GLOH   H05 9855   3.637   0.543   0.730  2.6415 -0.0122  0.0268
  120GLOH    C3 9856   3.731   0.848   0.687 -0.0149 -0.0699  0.0208
  120GLOH   H06 9857   3.637   0.896   0.715 -0.2876 -1.4789  1.6083
  120GLOH   H07 9858   3.725   0.836   0.579  0.2314  0.0524 -0.0070
  120GLOH    O3 9859   3.838   0.934   0.717  0.0303  0.2859 -0.3638
  120GLOH   H01 9860   3.924   0.897   0.690  0.0979  1.9886 -2.5417
  121ACOH    H4 9861   3.075   0.479   1.861 -0.9995 -1.1476 -1.5701
  121ACOH    O2 9862   3.150   0.466   1.801  0.1351 -0.7409 -0.2565
  121ACOH    C2 9863   3.263   0.460   1.877  0.2934  0.1416  0.7058
  121ACOH    O1 9864   3.359   0.395   1.836 -0.0131  0.3653 -0.1765
  121ACOH    C1 9865   3.280   0.551   1.991  0.1801 -0.1045 -0.2687
  121ACOH    H1 9866   3.238   0.649   1.969  1.9584  0.7338  0.0480
  121ACOH    H2 9867   3.383   0.568   2.023 -1.5749  2.5768  4.5412
  121ACOH    H3 9868   3.234   0.511   2.082  0.2764  2.5873  1.0113
  122ACOH    H4 9869   3.797   1.051   0.807  1.7286  0.4750  0.1132
  122ACOH    O2 9870   3.780   1.121   0.872  0.4436 -0.1790  0.5057
  122ACOH    C2 9871   3.758   1.235   0.804 -0.3243  0.2741  0.2146
  122ACOH    O1 9872   3.780   1.247   0.686 -0.2809 -0.5512 -0.5981
  122ACOH    C1 9873   3.739   1.349   0.895 -0.0834 -0.3771 -0.4531
  122ACOH    H1 9874   3.776   1.439   0.846  2.0196 -0.7369  0.4213
  122ACOH    H2 9875   3.784   1.342   0.994 -1.0064 -0.6669 -0.0463
  122ACOH    H3 9876   3.632   1.370   0.900  0.2533  1.3835 -0.3421
  123ACOH    H4 9877   2.522   8.931   0.249 -0.9319 -0.4912 -0.1069
  123ACOH    O2 9878   2.475   8.977   0.320 -0.3751  0.1152 -0.1225
  123ACOH    C2 9879   2.369   9.037   0.272  0.2897  0.4709  0.0120
  123ACOH    O1 9880   2.326   9.030   0.156 -0.2738 -0.5770 -0.1718
  123ACOH    C1 9881   2.304   9.118   0.377  0.8499 -0.3876  0.1845
  123ACOH    H1 9882   2.207   9.069   0.386  2.3015 -3.8213 -2.1627
  123ACOH    H2 9883   2.291   9.220   0.341  0.8455 -1.4450 -2.8768
  123ACOH    H3 9884   2.367   9.120   0.466  2.5022  0.8443 -0.9815
  124ACOH    H4 9885   2.433   8.849   1.297  0.1418  0.2756  0.7089
  124ACOH    O2 9886   2.429   8.767   1.349  0.1793 -0.2034 -0.0260
  124ACOH    C2 9887   2.431   8.797   1.482 -0.1439  0.2049 -0.4561
  124ACOH    O1 9888   2.436   8.904   1.541 -0.1252  0.0758  0.4522
  124ACOH    C1 9889   2.419   8.673   1.564 -0.3373 -0.3519 -0.8543
  124ACOH    H1 9890   2.337   8.607   1.536 -1.1035 -0.5486  1.7554
  124ACOH    H2 9891   2.416   8.692   1.671 -0.9052  1.2535 -1.1413
  124ACOH    H3 9892   2.508   8.614   1.541 -0.2304 -1.0224  1.2133
  125ACOH    H4 9893   4.040   8.446   1.173 -0.4738  0.0083  0.6228
  125ACOH    O2 9894   4.048   8.364   1.121  0.3729  0.2080  0.4184
  125ACOH    C2 9895   3.953   8.277   1.163  0.4322  0.0343  0.8114
  125ACOH    O1 9896   3.888   8.287   1.268 -0.4213  0.7156 -0.1645
  125ACOH    C1 9897   3.938   8.163   1.059  0.1718  0.6827 -0.3772
  125ACOH    H1 9898   4.025   8.099   1.057 -0.7977 -0.6057 -2.2194
  125ACOH    H2 9899   3.922   8.204   0.959 -1.0120  2.1620  0.3905
  125ACOH    H3 9900   3.847   8.109   1.086  0.8861 -0.3705 -0.0752
  126ACOH    H4 9901   5.090   0.687   0.925  0.4201  0.0541  0.9890
  126ACOH    O2 9902   5.185   0.706   0.925  0.4015  0.1673  0.0604
  126ACOH    C2 9903   5.245   0.611   1.000  0.4672 -0.2565 -0.8762
  126ACOH    O1 9904   5.204   0.510   1.048  0.1215 -0.0969 -0.1589
  126ACOH    C1 9905   5.395   0.627   0.996  0.6537  0.0770 -0.1794
  126ACOH    H1 9906   5.423   0.628   0.890 -0.8736 -0.4930 -0.5966
  126ACOH    H2 9907   5.435   0.544   1.053 -0.7782  0.2038  1.0357
  126ACOH    H3 9908   5.427   0.721   1.041 -0.8777  0.0327  1.0201
  127ACOH    H4 9909   2.791   8.391   1.942  0.9557  1.1875  0.4645
  127ACOH    O2 9910   2.852   8.339   1.887 -0.4664  0.2266 -0.2284
  127ACOH    C2 9911   2.801   8.339   1.767  0.1636 -0.3470  0.0398
  127ACOH    O1 9912   2.714   8.415   1.728 -0.1624  0.3532  0.1198
  127ACOH    C1 9913   2.856   8.242   1.674  0.5657  0.2082 -0.1878
  127ACOH    H1 9914   2.774   8.178   1.641  0.9149 -0.3593  0.0254
  127ACOH    H2 9915   2.936   8.193   1.730  0.4450  0.4129  0.1638
  127ACOH    H3 9916   2.891   8.297   1.587 -1.8946 -0.0418 -1.3912
  128ACOH    H4 9917   2.932   8.038   2.105 -1.0381  0.8243 -1.6092
  128ACOH    O2 9918   2.855   7.978   2.106 -0.0609 -0.4542  0.1783
  128ACOH    C2 9919   2.784   8.002   2.216  0.5034  0.2172  0.0322
  128ACOH    O1 9920   2.795   8.102   2.289  1.0506  0.4239 -0.2927
  128ACOH    C1 9921   2.664   7.909   2.226 -0.0379 -0.5034  0.5333
  128ACOH    H1 9922   2.675   7.835   2.148 -2.9743  1.0749 -1.4439
  128ACOH    H2 9923   2.568   7.960   2.216  0.9080  1.0283 -1.1657
  128ACOH    H3 9924   2.659   7.859   2.323 -1.8216 -0.0574  0.6900
  129ACOH    H4 9925   3.577   1.598   1.109  1.2556 -0.3457  0.5803
  129ACOH    O2 9926   3.609   1.670   1.053 -0.3716  0.1793  0.3043
  129ACOH    C2 9927   3.549   1.662   0.933  0.1996  0.5310 -0.0301
  129ACOH    O1 9928   3.491   1.564   0.892 -0.6661 -0.5453 -0.2688
  129ACOH    C1 9929   3.603   1.769   0.842  0.4054  0.2883  0.2454
  129ACOH    H1 9930   3.635   1.856   0.900  0.1988  1.6651 -1.6438
  129ACOH    H2 9931   3.533   1.788   0.760 -0.2771  1.8926  1.1691
  129ACOH    H3 9932   3.696   1.743   0.791 -0.2555  0.7501 -1.2359
  130ACOH    H4 9933   2.632   0.393   2.177 -1.1714 -1.4601  0.4934
  130ACOH    O2 9934   2.570   0.443   2.232  0.0349  0.6304 -0.0097
  130ACOH    C2 9935   2.473   0.365   2.283 -0.0866  0.2227 -0.0035
  130ACOH    O1 9936   2.474   0.241   2.298 -0.6111 -0.1389 -0.3397
  130ACOH    C1 9937   2.361   0.441   2.330  0.2680 -0.2370  0.0099
  130ACOH    H1 9938   2.275   0.423   2.265  1.1807 -2.3181 -0.6449
  130ACOH    H2 9939   2.369   0.550   2.325  1.5130 -0.3181  0.1965
  130ACOH    H3 9940   2.327   0.418   2.431  1.3244  1.9419  0.9080
  132ACOH    H4 9941   2.362   0.070   0.507 -1.2104 -1.3004  2.1561
  132ACOH    O2 9942   2.311   0.153   0.510 -0.2861 -0.6358  0.2485
  132ACOH    C2 9943   2.236   0.156   0.623  0.2309 -0.2093  0.4365
  132ACOH    O1 9944   2.212   0.061   0.698  0.4136 -0.5614  0.0266
  132ACOH    C1 9945   2.161   0.281   0.640  0.3119 -0.5115  0.5120
  132ACOH    H1 9946   2.099   0.298   0.553  0.9819 -1.9401 -0.2687
  132ACOH    H2 9947   2.227   0.367   0.647  0.5465 -0.7204  0.9301
  132ACOH    H3 9948   2.102   0.275   0.732  1.3042 -0.8993  1.1372
  133ACOH    H4 9949   4.719   0.284   0.256  0.2436 -1.7070  0.4526
  133ACOH    O2 9950   4.784   0.325   0.316 -0.1320 -0.0605 -0.2536
  133ACOH    C2 9951   4.858   0.226   0.364  0.1564 -0.4074 -0.5923
  133ACOH    O1 9952   4.826   0.110   0.346 -0.1131 -0.2357  0.0398
  133ACOH    C1 9953   4.948   0.280   0.468  0.4785 -0.2815 -0.0646
  133ACOH    H1 9954   5.008   0.360   0.423 -1.0563  1.6029  1.1554
  133ACOH    H2 9955   5.007   0.200   0.513  0.0627  0.1964  1.3214
  133ACOH    H3 9956   4.885   0.324   0.545  0.1791  1.8738 -1.4917
  134ACOH    H4 9957   3.368  -0.218   0.493  0.3276 -1.8573 -0.2079
  134ACOH    O2 9958   3.384  -0.229   0.398 -0.5904 -0.7223 -0.4996
  134ACOH    C2 9959   3.502  -0.180   0.367 -0.4150 -0.1012 -0.5492
  134ACOH    O1 9960   3.598  -0.169   0.442  0.1206 -0.3638  0.3065
  134ACOH    C1 9961   3.518  -0.155   0.220 -0.7957  0.1756 -0.2436
  134ACOH    H1 9962   3.511  -0.049   0.199 -0.6473  0.9308  3.1182
  134ACOH    H2 9963   3.450  -0.217   0.162  1.2449 -0.6799 -1.7818
  134ACOH    H3 9964   3.618  -0.193   0.198 -0.9888 -0.1591 -0.5455
  135ACOH    H4 9965   4.890   0.372   0.825  0.0954  0.8458  1.0739
  135ACOH    O2 9966   4.987   0.367   0.814 -0.0185  0.3348  0.2497
  135ACOH    C2 9967   5.024   0.238   0.834  0.2289 -0.2830  0.3906
  135ACOH    O1 9968   4.954   0.140   0.837 -0.0166 -0.2059  0.0009
  135ACOH    C1 9969   5.168   0.234   0.842 -0.5239 -0.1686  0.1726
  135ACOH    H1 9970   5.203   0.173   0.759  1.5434  1.8931 -0.5306
  135ACOH    H2 9971   5.214   0.188   0.930  2.0668 -0.0133 -1.0357
  135ACOH    H3 9972   5.213   0.332   0.827 -0.4961 -0.4088 -1.3815
  137SOL     OW 9973   3.136   0.776   0.889 -0.3110  0.5715 -0.3639
  137SOL    HW1 9974   3.223   0.726   0.885  0.2078  1.5622 -1.7959
  137SOL    HW2 9975   3.060   0.711   0.887  0.3398 -0.1485 -2.6254
  139SOL     OW 9976   3.095   0.558   0.647 -0.0448  0.1443 -0.2219
  139SOL    HW1 9977   3.031   0.634   0.653 -0.9886 -0.6296 -0.2909
  139SOL    HW2 9978   3.189   0.592   0.657 -0.5358  1.1288  1.1207
  140SOL     OW 9979   3.531   1.190   2.075  0.2193  0.0604  0.1809
  140SOL    HW1 9980   3.626   1.162   2.062  0.4012  0.6380  0.2224
  140SOL    HW2 9981   3.524   1.249   2.155 -0.1352  0.2071  0.0458
  141SOL     OW 9982   3.543   8.275   1.902 -0.0273  0.0399 -0.0530
  141SOL    HW1 9983   3.501   8.255   1.813  0.0607  0.2827 -0.1531
  141SOL    HW2 9984   3.643   8.269   1.893 -0.0502 -0.7171  0.2298
  143SOL     OW 9985   3.338   0.100   0.773 -0.0977 -0.1348 -0.2458
  143SOL    HW1 9986   3.275   0.025   0.791  0.7962 -0.0590  3.6540
  143SOL    HW2 9987   3.287   0.182   0.748 -1.4306 -0.6403  0.7814
  144SOL     OW 9988   2.336   9.360   1.643 -0.0900 -0.1890  0.1254
  144SOL    HW1 9989   2.375   9.287   1.586  0.7009 -0.0924  0.5294
  144SOL    HW2 9990   2.331   9.328   1.738 -1.2083 -0.2755  0.0366
  145SOL     OW 9991   3.348   9.283   2.116 -0.4722  0.4546  0.0282
  145SOL    HW1 9992   3.329   9.354   2.184 -0.8891  0.1380  0.2409
  145SOL    HW2 9993   3.375   9.326   2.030 -0.7622  0.8710  0.1468
  146SOL     OW 9994   4.148   9.661   2.188 -0.2189 -0.2166  0.3037
  146SOL    HW1 9995   4.211   9.737   2.170  0.8910 -0.9565  0.9388
  146SOL    HW2 9996   4.166   9.587   2.123 -1.8522  0.3681 -0.8400
  147SOL     OW 9997   4.268   0.605   0.353 -0.2881 -0.2140 -0.1211
  147SOL    HW1 9998   4.183   0.555   0.370 -0.5523  0.3792  0.3620
  147SOL    HW2 9999   4.325   0.603   0.436 -0.4552  0.5563  0.0236
  150SOL     OW10000   3.473   9.378   1.904  0.0602 -0.1130  0.2374
  150SOL    HW110001   3.570   9.389   1.882  0.1650 -1.3676  0.0191
  150SOL    HW210002   3.417   9.426   1.836  0.5096  0.0035 -0.0525
  151SOL     OW10003   3.236   9.048   2.101  0.1582 -0.8901 -0.6663
  151SOL    HW110004   3.283   9.135   2.119 -0.4885 -0.6697  0.0130
  151SOL    HW210005   3.303   8.978   2.075  0.8344 -0.5172  0.0579
  152SOL     OW10006   4.533   9.415   1.622  0.4456 -0.2325  0.1515
  152SOL    HW110007   4.484   9.452   1.701  0.5495 -0.6511  0.4170
  152SOL    HW210008   4.628   9.446   1.624 -0.7999  4.0523 -2.6560
  153SOL     OW10009   4.357   0.709   0.105 -0.3000 -0.8492 -0.1127
  153SOL    HW110010   4.283   0.758   0.058  0.5752  1.9219  1.3003
  153SOL    HW210011   4.324   0.674   0.192 -0.8136 -2.4948 -0.9434
  154SOL     OW10012   3.212   8.207   0.786 -0.1139 -0.3361 -0.2732
  154SOL    HW110013   3.215   8.165   0.877  0.9202 -0.3214 -0.2987
  154SOL    HW210014   3.118   8.233   0.765 -0.5967 -1.6382  0.1991
  156SOL     OW10015   3.110   0.939   1.972 -0.3366  0.4958 -0.5240
  156SOL    HW110016   3.113   0.914   1.875  0.3403  0.8412 -0.5975
  156SOL    HW210017   3.174   1.014   1.989  2.1495 -1.8697  0.8870
  157SOL     OW10018   3.291   1.515   1.778  0.8765  0.6518 -0.0568
  157SOL    HW110019   3.207   1.462   1.763  0.0960  1.6061  0.8460
  157SOL    HW210020   3.350   1.507   1.698  0.1129 -0.3644 -0.5392
  158SOL     OW10021   2.850   9.214   2.108 -0.0582  1.1042 -0.0000
  158SOL    HW110022   2.811   9.301   2.139  0.9748  1.2935  0.7876
  158SOL    HW210023   2.778   9.145   2.106 -0.5794  1.6063  0.8082
  159SOL     OW10024   2.163  -0.015   0.218 -0.3632  0.1348  0.4185
  159SOL    HW110025   2.218   0.042   0.280 -0.9758  0.6048  0.5348
  159SOL    HW210026   2.143  -0.103   0.263  0.1761  0.0125  0.4273
  160SOL     OW10027   4.504   0.126   1.596 -0.1122 -0.3226 -0.6611
  160SOL    HW110028   4.498   0.087   1.688  1.2928  1.3117  0.1641
  160SOL    HW210029   4.425   0.096   1.542 -1.4812 -0.5409  1.3749
  161SOL     OW10030   4.087   8.678   1.729  0.2948  0.2792  0.4527
  161SOL    HW110031   4.008   8.620   1.748  1.2219 -1.5367 -0.9925
  161SOL    HW210032   4.075   8.767   1.772 -1.7487 -0.5607  1.6710
  162SOL     OW10033   2.301  -0.123   1.961  0.3920  0.2706  0.0463
  162SOL    HW110034   2.348  -0.039   1.989  0.2974  0.6435 -0.8878
  162SOL    HW210035   2.215  -0.132   2.011  0.5363  0.5839  0.3528
  164SOL     OW10036   3.808   1.277   0.213  0.7994 -0.2986  0.3406
  164SOL    HW110037   3.880   1.345   0.228  2.0191 -1.5327  0.1847
  164SOL    HW210038   3.773   1.246   0.302  0.2397  0.5216  0.4117
  165SOL     OW10039   3.671   0.379   0.785  0.9807  0.3224  0.0966
  165SOL    HW110040   3.624   0.367   0.873 -1.1106  0.0256 -1.0079
  165SOL    HW210041   3.739   0.307   0.773  1.3621  0.4364  1.5115
  166SOL     OW10042   2.481   0.420   0.694  0.2482 -0.8990  0.3527
  166SOL    HW110043   2.468   0.413   0.595 -1.0542  1.1043  0.3331
  166SOL    HW210044   2.578   0.421   0.715  0.5399 -0.9891 -0.9640
  167SOL     OW10045   3.243   0.918   0.479 -0.1913 -0.1122 -0.2592
  167SOL    HW110046   3.168   0.868   0.434 -0.4813  0.6480 -0.6397
  167SOL    HW210047   3.307   0.951   0.410 -0.1682  0.2984 -0.0467
  168SOL     OW10048   3.916   8.792   1.922  1.0194 -0.2190  0.0136
  168SOL    HW110049   3.885   8.698   1.908 -0.7150  0.0217  1.9817
  168SOL    HW210050   3.863   8.854   1.865  1.3212 -0.2929 -0.3533
  169SOL     OW10051   2.297  -0.261   0.398  0.3415 -0.4459  0.9446
  169SOL    HW110052   2.343  -0.324   0.335 -1.8598 -0.6286 -0.5069
  169SOL    HW210053   2.274  -0.310   0.483  0.3174 -1.0742  0.5777
  170SOL     OW10054   4.107   1.118   0.792 -0.3227 -0.6506 -0.1619
  170SOL    HW110055   4.046   1.190   0.757  1.6750  1.0844 -0.2171
  170SOL    HW210056   4.063   1.072   0.869 -1.0068  1.8017  0.9833
  171SOL     OW10057   3.482   0.243   0.965  0.2123 -0.1598  0.7951
  171SOL    HW110058   3.479   0.146   0.990 -0.9680  0.1750  2.0255
  171SOL    HW210059   3.416   0.260   0.891 -0.1236 -0.1674  1.0890
  172SOL     OW10060   2.326  -0.267   0.699  0.1465  0.0260 -0.3907
  172SOL    HW110061   2.406  -0.209   0.706 -0.6917  1.3972 -1.8922
  172SOL    HW210062   2.243  -0.211   0.700 -0.6972 -1.1555 -1.3678
  174SOL     OW10063   3.391   8.408   1.415  0.2927 -0.2992 -0.7338
  174SOL    HW110064   3.483   8.382   1.384  0.8766  3.0006 -1.9679
  174SOL    HW210065   3.326   8.399   1.340  0.2759  0.6280 -0.8353
  175SOL     OW10066   2.783   0.563   0.085 -0.2634  0.7183  0.4198
  175SOL    HW110067   2.879   0.535   0.082 -0.3934  0.2293  0.7393
  175SOL    HW210068   2.728   0.488   0.122 -0.5834  1.4993  1.5531
  177SOL     OW10069   4.897   0.420   1.276 -0.0194  0.2507 -0.4551
  177SOL    HW110070   4.984   0.417   1.227 -0.3211  0.4361 -1.0100
  177SOL    HW210071   4.914   0.416   1.374  0.6125  0.2417 -0.5605
  178SOL     OW10072   4.701  -0.121   0.527  0.6414 -0.1629  0.2754
  178SOL    HW110073   4.715  -0.107   0.625  0.3643  0.3135  0.2538
  178SOL    HW210074   4.746  -0.047   0.476  1.2174 -0.6919  0.0173
  179SOL     OW10075   4.761  -0.070   0.782  0.2350 -0.2085  0.2132
  179SOL    HW110076   4.838  -0.008   0.798 -1.2715  1.5626  0.7211
  179SOL    HW210077   4.753  -0.133   0.860 -0.0490  0.9049  1.0976
  183SOL     OW10078   3.085   9.487   1.563  0.3113  0.1440 -0.0391
  183SOL    HW110079   3.125   9.564   1.513 -0.1259  0.4968  0.1441
  183SOL    HW210080   3.023   9.437   1.504  0.0761  0.3401  0.0414
  185SOL     OW10081   3.999   0.456   0.796  0.3700  0.2004  0.8635
  185SOL    HW110082   4.044   0.454   0.886 -0.1465  1.9756  1.1703
  185SOL    HW210083   3.904   0.485   0.807 -0.1874 -1.1997 -0.0762
  186SOL     OW10084   3.341   0.685   0.608  0.2242  0.2215  0.3129
  186SOL    HW110085   3.304   0.773   0.578 -0.1639 -0.1032 -0.1568
  186SOL    HW210086   3.438   0.681   0.585  0.1411  0.3478 -0.0647
  188SOL     OW10087   2.889   0.817   1.748  0.0543 -0.3766 -0.3959
  188SOL    HW110088   2.865   0.792   1.842  0.5286 -1.4227 -0.5557
  188SOL    HW210089   2.814   0.792   1.687 -0.7967  1.4555 -0.1383
  189SOL     OW10090   3.344   0.877   0.148 -0.5025 -0.4346  0.9272
  189SOL    HW110091   3.347   0.971   0.183  2.2441  0.0838 -0.5773
  189SOL    HW210092   3.398   0.818   0.208  0.1878 -0.4839  0.2574
  191SOL     OW10093   3.869  -0.209   0.736  0.3760 -0.4312  0.0192
  191SOL    HW110094   3.888  -0.303   0.763  0.6191 -0.0580  1.1464
  191SOL    HW210095   3.934  -0.181   0.664 -0.7327 -1.6485 -1.4879
  193SOL     OW10096   2.841  -0.263   0.969  0.8154 -0.0593  0.1841
  193SOL    HW110097   2.932  -0.305   0.975  1.2630  0.9246  0.3275
  193SOL    HW210098   2.780  -0.323   0.917  1.7834 -0.3143 -0.6771
  194SOL     OW10099   3.769   9.072   0.504  0.5722  0.2378 -0.0255
  194SOL    HW110100   3.735   8.981   0.525 -2.8810  1.2515 -0.8540
  194SOL    HW210101   3.770   9.085   0.404 -0.1945  1.5196  0.1197
  195SOL     OW10102   3.506   1.596   1.907  0.4287 -0.0625  0.0156
  195SOL    HW110103   3.554   1.668   1.857  1.5064 -1.4689 -1.0107
  195SOL    HW210104   3.422   1.573   1.859  0.6799 -0.3241 -0.2977
  196SOL     OW10105   2.793   0.887   1.320 -0.0282 -0.2323 -0.0032
  196SOL    HW110106   2.879   0.932   1.343 -0.2190  0.4213 -0.5700
  196SOL    HW210107   2.760   0.837   1.400  1.1691 -0.9635  0.0539
  197SOL     OW10108   3.581   9.065   1.439 -0.3009  0.0372  0.5659
  197SOL    HW110109   3.506   9.031   1.383  0.6977  0.9743 -1.3801
  197SOL    HW210110   3.544   9.108   1.522 -1.9684  1.3397 -0.8324
  198SOL     OW10111   2.467   9.433   1.068  0.5607  0.4199  0.4519
  198SOL    HW110112   2.520   9.441   1.153  1.5757 -0.3057 -0.1049
  198SOL    HW210113   2.449   9.525   1.032  0.3525  0.7232  1.3078
  199SOL     OW10114   4.138   9.142   1.635  0.3718  1.1219 -0.0639
  199SOL    HW110115   4.066   9.134   1.566  0.4138  0.2754 -0.0151
  199SOL    HW210116   4.222   9.176   1.592  0.0512  1.7516 -0.1922
  200SOL     OW10117   3.040   0.162   1.714 -0.4770 -0.4339 -0.9666
  200SOL    HW110118   3.128   0.158   1.763 -0.4614 -0.3702 -0.9895
  200SOL    HW210119   2.965   0.156   1.780 -0.4562 -0.3302 -0.9329
  201SOL     OW10120   3.710   0.519   1.336  0.0004  0.3637  0.8425
  201SOL    HW110121   3.759   0.467   1.405 -0.9230  0.5140  1.6116
  201SOL    HW210122   3.709   0.616   1.362  1.8578  0.8275 -0.6573
  202SOL     OW10123   3.199   8.100   1.510 -0.3151  0.5386  0.2339
  202SOL    HW110124   3.122   8.044   1.540 -0.6650  1.3191  0.8095
  202SOL    HW210125   3.198   8.187   1.560  0.9218  0.5596  0.2255
  203SOL     OW10126   3.371  -0.209   0.663 -0.0734 -0.1720  0.2712
  203SOL    HW110127   3.465  -0.188   0.689 -0.2640  0.3782  0.5232
  203SOL    HW210128   3.309  -0.185   0.738 -0.4537 -0.1899 -0.0314
  204SOL     OW10129   2.717   8.498   2.047 -0.1707 -0.2268 -0.1059
  204SOL    HW110130   2.730   8.456   2.138 -1.1835 -0.4390 -0.0565
  204SOL    HW210131   2.702   8.596   2.058  0.6025 -0.1083 -0.1065
  205SOL     OW10132   2.695   8.740   1.296  0.0847 -0.4889  0.0772
  205SOL    HW110133   2.597   8.748   1.312 -0.0872 -0.4155 -1.0037
  205SOL    HW210134   2.741   8.718   1.382 -0.3400  3.7911  1.5001
  206SOL     OW10135   3.110   9.338   0.166  0.2525  0.0030  0.5043
  206SOL    HW110136   3.031   9.373   0.216  0.7387  0.8508  0.6834
  206SOL    HW210137   3.138   9.250   0.205  0.4192  0.4941  1.5222
  207SOL     OW10138   4.644   0.324   1.201 -0.0425  0.2162 -0.6047
  207SOL    HW110139   4.607   0.417   1.201  1.8263  0.9984  1.3788
  207SOL    HW210140   4.741   0.327   1.228 -0.0365 -2.3380 -0.2530
  208SOL     OW10141   2.492   9.398   0.497 -0.4172  0.0637  0.3467
  208SOL    HW110142   2.591   9.396   0.491 -0.3929 -1.3882  1.0334
  208SOL    HW210143   2.464   9.433   0.587 -0.5614  1.7462 -0.3252
  210SOL     OW10144   4.299   0.307   1.094 -0.2149 -0.5438  0.0769
  210SOL    HW110145   4.202   0.318   1.077 -0.3311 -1.1281  0.3250
  210SOL    HW210146   4.342   0.396   1.107 -1.0266 -0.3526  1.6172
  211SOL     OW10147   2.403  -0.303   0.985 -0.2774 -0.4279 -0.4466
  211SOL    HW110148   2.397  -0.205   1.005 -1.2118 -0.7218  0.7806
  211SOL    HW210149   2.415  -0.317   0.886  0.2556  0.9275 -0.5782
  212SOL     OW10150   2.447   9.468   0.768  0.1798 -0.7031  0.1537
  212SOL    HW110151   2.367   9.518   0.736  0.0617 -0.5903  0.6114
  212SOL    HW210152   2.427   9.425   0.856 -0.1341 -2.6589 -0.8604
  213SOL     OW10153   2.864   9.379   0.283 -0.2502  0.3351 -0.4818
  213SOL    HW110154   2.852   9.286   0.318 -1.7871  0.1155 -1.5608
  213SOL    HW210155   2.823   9.445   0.346 -0.5964  0.1520 -0.5153
  214SOL     OW10156   2.465  -0.067   1.234 -0.1998 -0.2265 -0.0894
  214SOL    HW110157   2.533  -0.003   1.269  0.0388 -1.0041  0.8920
  214SOL    HW210158   2.384  -0.066   1.292 -0.9774  0.5891 -1.1736
  215SOL     OW10159   4.180   9.076   1.874 -0.2722 -0.9090  0.3675
  215SOL    HW110160   4.232   8.990   1.867 -1.5831 -1.8716  2.2379
  215SOL    HW210161   4.154   9.106   1.782  3.0832 -0.6904 -0.5850
  216SOL     OW10162   3.803   0.734   0.278 -0.1920  0.5792  0.0263
  216SOL    HW110163   3.900   0.750   0.295  0.3935 -3.7478  1.4057
  216SOL    HW210164   3.788   0.726   0.179  1.5473 -2.1535 -0.0704
  218SOL     OW10165   4.015   0.573   0.540  0.0089  0.5800  0.1169
  218SOL    HW110166   4.020   0.520   0.625  1.1144  0.7239  0.1496
  218SOL    HW210167   3.984   0.514   0.466  1.1816 -0.1049  0.1641
  220SOL     OW10168   2.322   9.565   1.438  0.1991 -0.1206 -0.1881
  220SOL    HW110169   2.319   9.509   1.521  2.8942 -1.3449 -0.8693
  220SOL    HW210170   2.283   9.515   1.362  2.1655 -0.9321 -0.6906
  221SOL     OW10171   2.059  -0.208   2.126 -0.5748  0.0736 -0.1221
  221SOL    HW110172   1.981  -0.147   2.111 -1.4253 -0.9578  0.0567
  221SOL    HW210173   2.115  -0.171   2.200  0.0159  1.6774 -1.3348
  222SOL     OW10174   3.477   9.174   1.665 -0.2344 -0.3051  0.4375
  222SOL    HW110175   3.441   9.264   1.643  0.1367 -0.1895  0.3027
  222SOL    HW210176   3.492   9.166   1.763 -1.7807 -0.7794  0.6614
  223SOL     OW10177   3.470  -0.311   1.582 -0.0748  0.2225  0.3395
  223SOL    HW110178   3.406  -0.236   1.600  0.7819  0.6431  1.7172
  223SOL    HW210179   3.542  -0.279   1.519 -0.0706  0.3619  0.4151
  224SOL     OW10180   2.686  -0.037   1.988  0.2926  0.8494  0.0719
  224SOL    HW110181   2.685  -0.128   1.946  1.5214  0.7241  0.2862
  224SOL    HW210182   2.620  -0.035   2.064  1.1099 -0.2385  0.8253
  225SOL     OW10183   3.578   9.127   1.991  0.1588 -0.0101  0.0900
  225SOL    HW110184   3.530   9.215   1.988 -1.8592 -1.1136 -0.7962
  225SOL    HW210185   3.648   9.125   1.919 -0.2211  0.6271 -0.2985
  226SOL     OW10186   4.171   0.073   2.194  0.2622 -0.1265  0.3190
  226SOL    HW110187   4.117   0.089   2.112 -0.7792  0.2330  1.0652
  226SOL    HW210188   4.195   0.160   2.236 -1.9742 -0.3308  2.1516
  229SOL     OW10189   2.275  -0.114   1.439 -0.3057 -0.0114 -0.0658
  229SOL    HW110190   2.259  -0.212   1.438  0.6121 -0.1628 -0.0199
  229SOL    HW210191   2.287  -0.083   1.534 -2.6732  0.5017  0.1171
  230SOL     OW10192   4.332   0.077   1.257  0.1794 -0.0222 -0.3236
  230SOL    HW110193   4.431   0.063   1.258  0.1410 -0.5428 -1.6492
  230SOL    HW210194   4.311   0.168   1.221  0.1821  0.0032 -0.2592
  231SOL     OW10195   3.788   9.115   0.229 -0.0280 -0.1362 -0.8882
  231SOL    HW110196   3.692   9.127   0.203 -0.2843  1.2699  0.5825
  231SOL    HW210197   3.842   9.193   0.195  0.4085 -0.4315 -0.8794
  234SOL     OW10198   3.754   0.167   1.204  0.1428 -0.0262 -0.0924
  234SOL    HW110199   3.690   0.209   1.269  0.1593  0.0295 -0.1120
  234SOL    HW210200   3.832   0.130   1.254 -1.0756 -2.3017  0.1986
  237SOL     OW10201   3.044   0.981   1.349  0.3543 -0.0986  0.0342
  237SOL    HW110202   3.106   0.912   1.386 -0.7518 -1.3248 -0.3574
  237SOL    HW210203   3.059   0.989   1.250  1.2142  0.9964  0.2455
  238SOL     OW10204   2.459   8.665   2.186 -0.3206  0.1689  0.1339
  238SOL    HW110205   2.473   8.582   2.132 -2.5671 -1.8206  2.4444
  238SOL    HW210206   2.528   8.670   2.258 -0.1988  0.3108  0.0087
  239SOL     OW10207   3.374   1.133   1.588  0.4978 -0.3588  0.0288
  239SOL    HW110208   3.291   1.151   1.536  0.3910 -0.2319  0.2457
  239SOL    HW210209   3.380   1.195   1.666  1.0741 -0.0052 -0.2987
  240SOL     OW10210   2.532  -0.295   1.358  0.2874  0.0488 -0.2882
  240SOL    HW110211   2.443  -0.335   1.381  0.1810  0.1954 -0.4523
  240SOL    HW210212   2.519  -0.205   1.317  0.6273  1.2905  2.2328
  241SOL     OW10213   3.057   0.960   1.076 -0.1429  0.0105 -0.1034
  241SOL    HW110214   3.062   1.036   1.012 -0.6467  0.0921 -0.0475
  241SOL    HW210215   3.092   0.877   1.032  0.4380  0.2796 -0.1514
  243SOL     OW10216   2.844   9.081   1.480  0.3450 -0.1079 -0.0960
  243SOL    HW110217   2.857   9.015   1.406 -1.5635 -0.4487 -0.1572
  243SOL    HW210218   2.830   9.172   1.442 -0.4353 -0.2493 -0.1515
  244SOL     OW10219   4.073   9.644   1.803  0.2511  0.3121 -0.5308
  244SOL    HW110220   4.080   9.743   1.814  0.5092  0.2538 -0.1924
  244SOL    HW210221   4.125   9.599   1.875 -0.1588 -0.0719 -0.4737
  245SOL     OW10222   3.714   0.790   1.397  0.0847 -0.2663 -0.3062
  245SOL    HW110223   3.802   0.820   1.432 -0.1979  1.1646 -0.7995
  245SOL    HW210224   3.644   0.857   1.421 -1.2147 -2.2096  1.5906
  246SOL     OW10225   3.799   1.074   1.212  0.3841 -0.1755  0.3215
  246SOL    HW110226   3.712   1.033   1.184  1.3838 -2.1242 -0.0017
  246SOL    HW210227   3.822   1.045   1.304  1.1444 -0.4096  0.0614
  247SOL     OW10228   3.065   0.698   1.570  0.3062  0.0297  0.0634
  247SOL    HW110229   3.024   0.608   1.559 -1.3643  0.6988  0.6929
  247SOL    HW210230   3.018   0.748   1.643  2.0045  0.9610  0.5597
  250SOL     OW10231   2.954   0.449   1.548  0.2994 -0.1377  0.3710
  250SOL    HW110232   2.942   0.398   1.463 -2.2656 -2.5655  2.0858
  250SOL    HW210233   2.995   0.389   1.617 -1.2411  0.5815  1.9449
  251SOL     OW10234   2.946  -0.025   0.932 -0.6288 -0.0622  0.4108
  251SOL    HW110235   2.883  -0.099   0.956 -0.9016  0.4780  1.3892
  251SOL    HW210236   2.907   0.031   0.860 -0.8252 -0.3247  0.3142
  252SOL     OW10237   3.287   9.552   0.772 -0.1530 -0.8987  0.2228
  252SOL    HW110238   3.260   9.475   0.715 -1.9567 -0.8657  1.0052
  252SOL    HW210239   3.328   9.623   0.715 -1.7266 -0.9525 -1.0116
  253SOL     OW10240   3.257   8.914   1.820 -0.6832 -0.1580  0.3832
  253SOL    HW110241   3.236   8.981   1.891  0.8941  1.3380 -0.4982
  253SOL    HW210242   3.200   8.931   1.740  0.3225  0.7313 -0.1659
  254SOL     OW10243   2.668  -0.272   0.461 -0.3995  0.4808 -0.6039
  254SOL    HW110244   2.597  -0.201   0.455  0.2782  1.2585  0.4394
  254SOL    HW210245   2.756  -0.230   0.483  0.4553 -0.4583 -2.2003
  255SOL     OW10246   2.795   0.413   0.731 -0.1706 -0.0788 -0.1170
  255SOL    HW110247   2.864   0.450   0.793 -0.9920 -0.5495  1.0927
  255SOL    HW210248   2.805   0.455   0.641  1.3848  0.2065  0.1745
  256SOL     OW10249   3.264   8.586   1.604  0.5778  0.4160 -0.6736
  256SOL    HW110250   3.322   8.626   1.675  0.1801  1.2946 -0.8309
  256SOL    HW210251   3.313   8.588   1.517  0.9489 -0.3797 -0.4846
  257SOL     OW10252   3.265   0.968   0.743 -0.2944 -0.6428  0.6346
  257SOL    HW110253   3.258   0.968   0.643 -0.7736  0.8966  0.6471
  257SOL    HW210254   3.220   0.887   0.779 -1.2858 -0.5495 -0.3477
  258SOL     OW10255   3.271   1.155   2.059  0.2715  0.5693 -0.0330
  258SOL    HW110256   3.366   1.176   2.082 -0.1600 -0.1601  2.6040
  258SOL    HW210257   3.218   1.239   2.058  1.0196  1.0374 -1.9809
  259SOL     OW10258   4.292   8.836   1.879 -0.6969  0.5521 -0.2981
  259SOL    HW110259   4.304   8.751   1.828 -2.8214  0.0715 -0.0118
  259SOL    HW210260   4.288   8.816   1.977 -1.6174  0.9387 -0.2552
  260SOL     OW10261   2.972   0.548   0.923  0.7552  0.4460  0.1006
  260SOL    HW110262   3.023   0.484   0.980  1.4466  0.7656 -0.1475
  260SOL    HW210263   2.904   0.595   0.979 -0.8674 -1.6461 -0.0517
  261SOL     OW10264   3.665   8.866   1.229  0.5573  0.3379  0.0597
  261SOL    HW110265   3.566   8.867   1.244  0.8822  1.8558  2.4011
  261SOL    HW210266   3.691   8.945   1.174  0.4168 -0.3485 -1.0001
  262SOL     OW10267   3.605   0.464   1.076 -0.1943 -0.2165  0.2079
  262SOL    HW110268   3.651   0.479   1.163 -1.4684  0.4714  0.7850
  262SOL    HW210269   3.545   0.384   1.083 -0.8322  0.2489  0.2075
  264SOL     OW10270   2.976   0.136   0.655 -0.0310  0.6428  0.2998
  264SOL    HW110271   3.037   0.199   0.702  0.2571  1.2240 -0.8529
  264SOL    HW210272   2.881   0.162   0.674  0.0864  1.7405 -0.5956
  265SOL     OW10273   2.620   8.860   0.106  0.5115  0.1325 -0.0702
  265SOL    HW110274   2.689   8.931   0.087  0.5570  0.2068  0.3501
  265SOL    HW210275   2.573   8.836   0.022  0.2820  0.8877 -0.1665
  266SOL     OW10276   3.834   8.922   1.649  0.3359 -0.0572  0.2378
  266SOL    HW110277   3.759   8.879   1.599  0.8933 -0.8778  0.0748
  266SOL    HW210278   3.901   8.957   1.583  0.6147 -0.3015  0.3880
  267SOL     OW10279   3.213   8.332   1.680  0.0143 -0.3373  0.3853
  267SOL    HW110280   3.212   8.350   1.779  0.3913 -0.9004  0.4936
  267SOL    HW210281   3.226   8.418   1.631  1.4345 -0.2512  0.8845
  268SOL     OW10282   2.407  -0.110   1.691  0.6822  0.0796 -0.4261
  268SOL    HW110283   2.389  -0.110   1.790 -0.0408  1.2029 -0.5426
  268SOL    HW210284   2.505  -0.121   1.675  1.1427  2.4627  0.5145
  269SOL     OW10285   2.748   8.446   0.054 -0.2480 -0.1331 -0.5395
  269SOL    HW110286   2.716   8.534   0.090  1.1018  0.3532 -0.5051
  269SOL    HW210287   2.705   8.371   0.105  2.0564  0.5410  2.5112
  271SOL     OW10288   3.047   0.689   0.393  0.1166  0.3374  0.3145
  271SOL    HW110289   3.029   0.608   0.448  1.2776  0.1350  0.4045
  271SOL    HW210290   3.053   0.663   0.297  2.0262  0.0528  0.4905
  272SOL     OW10291   2.734   0.641   1.555  0.3101 -0.0332  0.2681
  272SOL    HW110292   2.787   0.558   1.572  1.2900 -0.0149 -2.4981
  272SOL    HW210293   2.648   0.618   1.511 -0.5176  0.2451  1.6932
  274SOL     OW10294   3.081   0.553   0.130 -0.2552 -0.4520 -0.0949
  274SOL    HW110295   3.149   0.481   0.134 -0.1289 -0.3603 -0.5924
  274SOL    HW210296   3.116   0.630   0.077 -1.8110 -1.5690 -2.8945
  275SOL     OW10297   2.463   9.616   1.757 -0.2007 -0.2626 -0.3825
  275SOL    HW110298   2.384   9.557   1.745 -0.3822  0.0031 -0.4914
  275SOL    HW210299   2.438   9.711   1.735 -0.2552  0.0600  1.0481
  277SOL     OW10300   3.686   9.663   1.774 -0.3629  0.0729 -0.3093
  277SOL    HW110301   3.700   9.565   1.759 -0.5848 -0.1840  1.0651
  277SOL    HW210302   3.614   9.696   1.712 -1.0521 -0.8633 -0.0309
  278SOL     OW10303   2.419   0.399   0.408  0.2010 -0.0614 -0.3039
  278SOL    HW110304   2.479   0.416   0.330  0.3753  1.1055  0.0775
  278SOL    HW210305   2.380   0.307   0.400  1.5187 -0.5866 -0.8939
  279SOL     OW10306   3.166  -0.240   1.459  0.4352  0.3260  0.4583
  279SOL    HW110307   3.193  -0.176   1.531 -0.7492  1.2429  0.1240
  279SOL    HW210308   3.069  -0.225   1.436  0.6348 -0.3460 -0.9068
  280SOL     OW10309   3.803   9.359   0.516  0.1807 -0.1399  0.5546
  280SOL    HW110310   3.811   9.260   0.530  1.9329 -0.0843  0.1062
  280SOL    HW210311   3.816   9.379   0.419  0.8225  0.6173  0.7951
  281SOL     OW10312   2.891   0.740   2.034  0.1255 -0.3445 -0.2712
  281SOL    HW110313   2.959   0.814   2.027 -0.4105  0.2481  0.6884
  281SOL    HW210314   2.840   0.749   2.120 -2.4706  0.3373 -1.8192
  282SOL     OW10315   3.506   8.155   1.646 -0.3306 -0.5397  0.2324
  282SOL    HW110316   3.534   8.090   1.576  0.5734  1.1070 -0.9956
  282SOL    HW210317   3.410   8.178   1.634 -0.7495 -1.9049  0.8999
  283SOL     OW10318   2.958   8.279   0.761  0.3038 -0.6920  0.2743
  283SOL    HW110319   2.933   8.363   0.809  1.1287 -1.9955  3.1290
  283SOL    HW210320   2.895   8.263   0.685 -1.4579  1.1403  1.3222
  284SOL     OW10321   4.105  -0.033   1.124 -0.5620 -0.1979 -0.1068
  284SOL    HW110322   4.182  -0.004   1.180 -0.7976  1.5327 -0.6412
  284SOL    HW210323   4.137  -0.054   1.032 -0.6684  0.1656 -0.2277
  285SOL     OW10324   3.124   1.194   1.519 -0.1040  0.0085 -0.4644
  285SOL    HW110325   3.096   1.116   1.463 -0.8038 -0.3309  0.3436
  285SOL    HW210326   3.054   1.266   1.513 -0.2051 -0.0471 -0.0016
  286SOL     OW10327   2.760   8.672   0.231 -0.2257  0.0124  0.2988
  286SOL    HW110328   2.784   8.716   0.317  0.2271  0.4865 -0.0708
  286SOL    HW210329   2.699   8.732   0.178 -0.3548 -0.1996  0.2028
  287SOL     OW10330   3.383   0.577   0.909 -0.4798  0.2554 -0.2736
  287SOL    HW110331   3.412   0.618   0.822 -1.2065  0.4571 -0.4232
  287SOL    HW210332   3.462   0.536   0.954 -0.8874 -4.3591 -3.3882
  290SOL     OW10333   2.748   8.808   2.009  0.4192 -0.1918 -0.2114
  290SOL    HW110334   2.686   8.886   2.021 -0.4925 -0.7677 -1.0741
  290SOL    HW210335   2.831   8.824   2.062  0.2031  1.3074 -0.2845
  293SOL     OW10336   4.305  -0.255   1.944 -0.1110  0.0936 -0.2902
  293SOL    HW110337   4.228  -0.196   1.921 -0.7400 -0.8613 -0.6426
  293SOL    HW210338   4.344  -0.226   2.031 -0.9316  0.5083 -0.0575
  294SOL     OW10339   2.795   0.583   0.479  0.1098 -0.0247 -0.2831
  294SOL    HW110340   2.793   0.665   0.536  2.7668 -0.6006  0.7133
  294SOL    HW210341   2.812   0.609   0.384  0.8820  0.5876  0.0221
  295SOL     OW10342   2.495   9.158   1.578  0.0864 -0.3331 -0.1604
  295SOL    HW110343   2.527   9.064   1.565 -0.0777 -0.5648  1.0762
  295SOL    HW210344   2.557   9.205   1.641 -0.2232  0.1904 -0.2455
  296SOL     OW10345   3.338   9.437   1.671 -1.1104  0.1659 -0.1002
  296SOL    HW110346   3.242   9.425   1.647 -0.9007  1.7289 -1.8718
  296SOL    HW210347   3.378   9.508   1.612  1.0622 -0.3084  0.7669
  298SOL     OW10348   3.270   1.432   0.744 -0.2055  0.6461 -0.4339
  298SOL    HW110349   3.309   1.518   0.777 -0.0971  0.5672 -0.3575
  298SOL    HW210350   3.239   1.378   0.822 -0.5311  0.7376 -0.4961
  299SOL     OW10351   4.293   9.664   0.439  0.0338  0.2795 -0.0755
  299SOL    HW110352   4.386   9.652   0.472  0.0015  0.1951 -0.0149
  299SOL    HW210353   4.290   9.736   0.371  0.3170 -0.3843 -0.7980
  300SOL     OW10354   3.148   0.321   0.772  0.4510  0.0006  0.1887
  300SOL    HW110355   3.099   0.394   0.725 -0.7843  0.4190  2.0553
  300SOL    HW210356   3.181   0.355   0.860  2.4968 -0.8277 -0.2495
  302SOL     OW10357   4.025   9.234   0.092  0.0932 -0.1422  0.0323
  302SOL    HW110358   4.014   9.259  -0.004  0.7404  0.1306  0.0266
  302SOL    HW210359   4.026   9.134   0.101  0.0120 -0.1673 -0.2399
  303SOL     OW10360   2.900  -0.146   0.494  0.0179  0.7325 -0.5786
  303SOL    HW110361   2.961  -0.170   0.419 -0.2173  1.9920 -1.1843
  303SOL    HW210362   2.954  -0.105   0.568  0.2144 -0.2682 -0.1664
  304SOL     OW10363   3.483   0.929   1.431 -0.6548  0.0123 -0.3649
  304SOL    HW110364   3.418   0.854   1.443 -1.8173  0.9103 -0.9686
  304SOL    HW210365   3.454   1.007   1.487  0.7081 -0.0788  0.4856
  306SOL     OW10366   3.355   8.921   1.544  0.2704  0.2356 -0.4311
  306SOL    HW110367   3.397   8.843   1.589 -1.0051  0.1097  0.5743
  306SOL    HW210368   3.379   9.005   1.594 -0.3213  0.2088 -0.0991
  307SOL     OW10369   3.609  -0.091   0.717 -0.1187  0.1164  0.2709
  307SOL    HW110370   3.586  -0.028   0.642 -2.5089 -2.0214 -0.8709
  307SOL    HW210371   3.698  -0.132   0.699  0.2383  1.1454 -0.3667
  308SOL     OW10372   2.783   0.817   0.627  0.0993 -0.1800  0.4423
  308SOL    HW110373   2.822   0.894   0.577 -1.8702  1.0043  0.6848
  308SOL    HW210374   2.737   0.850   0.709 -1.7336 -1.4717 -0.0268
  310SOL     OW10375   4.044   0.151   1.970  0.0044  0.6339 -0.6306
  310SOL    HW110376   3.957   0.102   1.969  0.4331 -0.1186 -0.8224
  310SOL    HW210377   4.034   0.237   1.920 -0.4205  0.1952 -1.3025
  311SOL     OW10378   3.659   9.556   0.647  0.0978  0.7244 -0.3576
  311SOL    HW110379   3.711   9.622   0.702  1.9943 -0.2496 -0.9235
  311SOL    HW210380   3.718   9.479   0.622 -1.8242 -0.7531 -0.4863
  315SOL     OW10381   3.508   0.152   0.557 -0.8452 -0.1094 -0.0390
  315SOL    HW110382   3.456   0.200   0.487 -2.5040 -2.4134 -0.4655
  315SOL    HW210383   3.447   0.125   0.631 -0.2171 -2.4752 -0.3324
  316SOL     OW10384   2.469  -0.051   0.415 -0.1153 -0.3621 -0.4849
  316SOL    HW110385   2.517  -0.038   0.328  0.2661 -2.8986 -0.6930
  316SOL    HW210386   2.406  -0.128   0.408 -0.2812 -0.4362  1.4010
  10.00000  10.00000   2.88200
