Written by MDAnalysis
45669
    1CHTO  H203    1   5.277   6.177   3.913 -2.2550  0.2062 -2.6147
    1CHTO   O82    2   5.329   6.246   3.876  0.3069  0.1974  0.7595
    1CHTO  C123    3   5.450   6.189   3.822 -0.3300  0.1601  0.4989
    1CHTO  H227    4   5.517   6.169   3.906 -1.6835  0.2232  1.6203
    1CHTO   O77    5   5.411   6.062   3.762  0.3572  0.0036 -0.0213
    1CHTO  C118    6   5.523   5.973   3.733  1.0824 -0.5896 -0.2225
    1CHTO  H222    7   5.583   5.951   3.823 -0.1311 -0.3134  0.6719
    1CHTO  C125    8   5.489   5.835   3.669  0.4348 -0.7567 -0.0568
    1CHTO   O84    9   5.391   5.762   3.738  0.3865 -0.3364 -0.8099
    1CHTO  H205   10   5.309   5.805   3.721  1.1637  1.2425 -0.6618
    1CHTO  C114   11   5.624   6.040   3.638  0.2950  0.0968  0.5948
    1CHTO  H218   12   5.576   6.050   3.541 -0.8589 -1.5966  0.9613
    1CHTO  C116   13   5.649   6.197   3.661  0.1812 -0.1873 -0.4020
    1CHTO  H220   14   5.717   6.187   3.748 -2.4169  1.1661  1.8649
    1CHTO   O79   15   5.717   6.254   3.545 -0.1106 -0.7599 -0.1040
    1CHTO  H201   16   5.801   6.213   3.536 -0.6052 -1.7074 -0.5693
    1CHTO  C120   17   5.520   6.271   3.705 -0.5224 -0.2871  0.1082
    1CHTO  H224   18   5.445   6.282   3.624  0.0620 -1.0651 -0.5540
    1CHTO   N21   19   5.554   6.413   3.745 -0.0920  0.1527 -0.0821
    1CHTO  H211   20   5.480   6.443   3.818 -0.2430 -0.3551 -0.0301
    1CHTO  H212   21   5.649   6.431   3.794 -1.3916  1.0299  2.2299
    1CHTO   O75   22   5.729   5.957   3.632 -0.1633 -0.6964  0.2000
    1CHTO  C112   23   5.808   5.936   3.494  0.1305 -0.0265 -0.5477
    1CHTO  H216   24   5.806   6.031   3.437  1.4807  0.5465  0.3350
    1CHTO   O73   25   5.748   5.833   3.425  0.1182 -0.2673  0.5449
    1CHTO  C113   26   5.805   5.798   3.299 -0.7799 -0.4587  0.2904
    1CHTO  H217   27   5.812   5.887   3.233 -1.7853  0.8522  1.9310
    1CHTO  C124   28   5.731   5.687   3.229  0.3462  0.1981 -0.0313
    1CHTO   O83   29   5.718   5.562   3.297  0.4221  0.0249  0.5847
    1CHTO  H204   30   5.628   5.549   3.320  1.6417 -2.9360  4.2428
    1CHTO  C109   31   5.948   5.752   3.318  0.5022  0.0210 -0.2755
    1CHTO  H213   32   5.946   5.653   3.366 -1.6649  0.3658  0.3708
    1CHTO  C110   33   6.027   5.851   3.395  0.3667 -0.4898  0.2843
    1CHTO  H214   34   6.043   5.943   3.338  0.7634  0.9797  2.6783
    1CHTO   O78   35   6.154   5.798   3.423 -0.1624 -0.1331  0.6139
    1CHTO  H200   36   6.145   5.719   3.474  0.7085 -0.8815 -0.3601
    1CHTO  C111   37   5.953   5.895   3.525  0.2767 -0.0071  0.1011
    1CHTO  H215   38   5.947   5.808   3.592  1.0668  0.3996  0.7179
    1CHTO   N19   39   6.024   6.003   3.600  0.3871 -0.2020  0.4824
    1CHTO  H207   40   6.063   6.081   3.538 -1.3269  1.2821  1.2239
    1CHTO  H208   41   5.975   6.047   3.686  1.0198 -1.1719  1.3581
    1CHTO   O74   42   6.002   5.735   3.187  0.0325 -0.5976  0.0998
    1CHTO  C115   43   6.061   5.594   3.167  0.1838 -0.6813  0.1383
    1CHTO  H219   44   6.069   5.544   3.264 -1.4810 -0.4531  0.4057
    1CHTO   O76   45   5.975   5.511   3.088  0.2792 -0.1480 -0.7318
    1CHTO  C122   46   5.970   5.553   2.951  0.1899  0.0070 -0.4365
    1CHTO  H226   47   5.939   5.658   2.946 -0.9749 -0.1490  2.3379
    1CHTO  C126   48   5.858   5.477   2.880  0.2339  0.2899  0.6965
    1CHTO   O85   49   5.724   5.515   2.917  0.5017 -0.0288  0.0408
    1CHTO  H206   50   5.701   5.577   2.850  2.8402  0.0805 -0.7172
    1CHTO  C121   51   6.107   5.523   2.879  0.5289  0.4673  0.5401
    1CHTO  H225   52   6.106   5.425   2.826  0.5411  0.8021 -0.0894
    1CHTO   O81   53   6.133   5.624   2.778  0.2473 -0.2230 -0.4251
    1CHTO  H202   54   6.196   5.588   2.718  0.4926  1.2718 -1.0816
    1CHTO  C119   55   6.228   5.520   2.986  0.2374 -0.5919  0.3313
    1CHTO  H223   56   6.220   5.424   3.037 -0.4728 -0.8128 -0.2005
    1CHTO  C117   57   6.206   5.618   3.106  0.2946 -0.4608 -0.5787
    1CHTO  H221   58   6.213   5.723   3.079  1.8407 -0.3926  0.0784
    1CHTO   N20   59   6.316   5.604   3.214  0.7429  0.2187  0.3614
    1CHTO  H209   60   6.313   5.503   3.252 -2.4612  0.0909 -0.1531
    1CHTO  H210   61   6.417   5.638   3.196  1.1996 -0.7378  1.0784
    1CHTO   O80   62   6.367   5.516   2.918 -0.1069  0.0864 -0.1177
    1CHTO  C103   63   6.448   5.399   2.903  0.2114 -0.0270 -0.1452
    1CHTO  H190   64   6.459   5.358   3.004 -1.3961 -1.1824 -0.4034
    1CHTO  C101   65   6.394   5.286   2.809 -0.1661 -0.3731  0.0428
    1CHTO  H188   66   6.343   5.333   2.725 -0.1128  0.0553  0.2468
    1CHTO   O68   67   6.279   5.184   2.917  0.2217  0.2981  0.2265
    1CHTO  H168   68   6.323   5.174   2.998 -3.3202  1.9348  2.4944
    1CHTO   C99   69   6.518   5.193   2.764  0.5903  0.2947 -0.4700
    1CHTO  H186   70   6.553   5.130   2.849 -0.2731 -1.4009 -1.3304
    1CHTO   N17   71   6.470   5.086   2.672  0.0518 -0.3855 -0.0456
    1CHTO  H174   72   6.555   5.020   2.662  2.7577  2.8942  0.3173
    1CHTO  H175   73   6.388   5.039   2.725  1.1902  0.6153  2.6873
    1CHTO   C97   74   6.644   5.275   2.716  0.1374 -0.4149 -0.2359
    1CHTO  H184   75   6.618   5.334   2.627 -2.1497  0.0195  0.7142
    1CHTO   O64   76   6.681   5.360   2.831  0.2659 -0.0436 -0.0183
    1CHTO  C104   77   6.579   5.462   2.852  0.2725  0.1099  0.5414
    1CHTO  H191   78   6.556   5.517   2.760  1.9793  1.1916  0.7481
    1CHTO  C108   79   6.640   5.561   2.954  0.2492 -0.2609 -0.0314
    1CHTO   O71   80   6.759   5.621   2.917  0.0336 -0.3696  0.2252
    1CHTO  H171   81   6.777   5.687   2.982 -0.7441  1.4122 -1.3096
    1CHTO   O62   82   6.762   5.188   2.684 -0.4497 -0.1603 -0.2185
    1CHTO   C91   83   6.869   5.257   2.619 -0.3356 -0.4850  0.6333
    1CHTO  H178   84   6.850   5.361   2.646  1.0264 -0.2226  0.6327
    1CHTO   C92   85   6.856   5.212   2.465 -0.1862  0.2195  0.5811
    1CHTO  H179   86   6.760   5.232   2.416 -0.3216 -2.0547 -0.1401
    1CHTO   O66   87   6.937   5.309   2.398 -0.4897 -0.2006  0.1777
    1CHTO  H166   88   6.909   5.325   2.310  1.0659 -2.7836 -0.8261
    1CHTO   C93   89   6.908   5.061   2.432  0.0304  0.0709 -0.2495
    1CHTO  H180   90   6.949   5.055   2.330 -0.3139 -0.0130 -0.3839
    1CHTO   N16   91   6.791   4.970   2.430 -0.8045 -0.3060 -0.1977
    1CHTO  H172   92   6.738   4.975   2.336 -0.5705  3.5347 -0.2013
    1CHTO  H173   93   6.802   4.868   2.464 -1.4419 -0.2459  0.1877
    1CHTO   C94   94   7.017   5.010   2.535  0.3326  0.1246 -0.1660
    1CHTO  H181   95   6.980   4.947   2.616  2.6321 -0.7478  0.2453
    1CHTO   O61   96   7.086   5.121   2.595 -0.4902  0.0363  0.1111
    1CHTO   C95   97   7.008   5.209   2.671  1.2127  0.3288 -0.1380
    1CHTO  H182   98   6.993   5.164   2.769  1.1355  2.0134  0.6292
    1CHTO  C106   99   7.089   5.334   2.697 -0.3907 -0.1219 -0.1823
    1CHTO   O69  100   7.209   5.305   2.769  0.2408 -0.3627  0.1253
    1CHTO  H169  101   7.264   5.259   2.708  1.3482  1.5714 -0.3891
    1CHTO   O63  102   7.127   4.920   2.447  0.1176 -0.2072 -0.5984
    1CHTO   C96  103   7.134   4.769   2.490 -0.5241  0.0175 -0.3464
    1CHTO  H183  104   7.033   4.742   2.519 -0.4551 -1.3578 -1.3397
    1CHTO   C98  105   7.236   4.745   2.605  0.2016 -0.4269 -0.2000
    1CHTO  H185  106   7.215   4.812   2.689 -0.3413 -0.6773 -0.1335
    1CHTO   O67  107   7.231   4.610   2.656  0.4909 -0.4467 -0.8379
    1CHTO  H167  108   7.227   4.597   2.749  1.1470 -1.3424 -0.9236
    1CHTO  C102  109   7.387   4.761   2.554 -1.2370  0.1216 -0.3094
    1CHTO  H189  110   7.448   4.723   2.637 -1.7893  1.9105  0.9487
    1CHTO   N18  111   7.432   4.908   2.539 -0.1657  0.5821 -0.2621
    1CHTO  H176  112   7.386   4.954   2.453 -1.5453 -2.5857 -1.3277
    1CHTO  H177  113   7.539   4.907   2.526  0.0437 -2.1136  1.2453
    1CHTO  C105  114   7.417   4.664   2.437  0.2795  0.1974 -0.2997
    1CHTO  H192  115   7.479   4.719   2.365 -0.4718  0.5990 -0.6527
    1CHTO   O65  116   7.301   4.609   2.375  0.1263  0.2235  0.2488
    1CHTO  C100  117   7.178   4.685   2.371 -0.5887  0.1519 -0.0382
    1CHTO  H187  118   7.190   4.756   2.288 -0.8892  0.7764  0.4509
    1CHTO  C107  119   7.053   4.597   2.331 -0.6502  0.0189  0.1542
    1CHTO   O70  120   7.044   4.587   2.189  0.2359 -0.2139  0.4268
    1CHTO  H170  121   6.955   4.595   2.160  0.5607  1.2455 -0.1767
    1CHTO   O57  122   7.502   4.546   2.503 -0.1155  0.4934  0.2411
    1CHTO   C85  123   7.641   4.536   2.505 -0.4796  0.4823  0.0025
    1CHTO  H157  124   7.669   4.518   2.399  1.4905  5.3872 -0.4373
    1CHTO   C83  125   7.670   4.402   2.585  0.8854 -0.0979  0.2987
    1CHTO  H155  126   7.638   4.325   2.515  1.9674 -0.7243  0.4678
    1CHTO   O56  127   7.599   4.389   2.706  0.0565 -0.0673 -0.0734
    1CHTO  H135  128   7.510   4.366   2.687 -0.4635  0.8135  1.2115
    1CHTO   C81  129   7.827   4.393   2.607 -0.3563  0.2380 -0.2872
    1CHTO  H153  130   7.877   4.410   2.512 -0.6499 -0.4215 -0.5601
    1CHTO   N14  131   7.871   4.259   2.648 -0.3801 -0.2292  0.0962
    1CHTO  H141  132   7.862   4.208   2.555  1.0578 -1.0824  0.4128
    1CHTO  H142  133   7.975   4.278   2.664  0.0860 -0.4214 -2.4890
    1CHTO   C79  134   7.871   4.515   2.700 -0.2901 -0.3609  0.2285
    1CHTO  H151  135   7.975   4.500   2.729 -0.8120 -0.3246  2.1463
    1CHTO   O52  136   7.856   4.645   2.637  0.3260 -0.0328  0.1032
    1CHTO   C86  137   7.726   4.664   2.570  0.1048  0.3827  0.3747
    1CHTO  H158  138   7.669   4.711   2.653 -1.7475  2.1457 -1.8081
    1CHTO   C90  139   7.748   4.765   2.462 -0.5801  0.5673  0.8164
    1CHTO   O60  140   7.767   4.888   2.534  0.6766  0.2434  0.1731
    1CHTO  H138  141   7.787   4.964   2.483  1.6832  0.9633  1.6068
    1CHTO   O50  142   7.802   4.520   2.819 -0.3259 -0.3176 -0.6535
    1CHTO   C73  143   7.784   4.567   2.955 -0.4202  0.1774  0.3815
    1CHTO  H145  144   7.839   4.507   3.028 -0.4363 -0.7222 -0.3369
    1CHTO   C74  145   7.635   4.546   2.998  0.2577 -0.5372 -0.8394
    1CHTO  H146  146   7.607   4.442   2.976 -0.9800 -0.2096 -0.8978
    1CHTO   O54  147   7.625   4.548   3.143  1.1564 -0.2450  0.2647
    1CHTO  H133  148   7.596   4.465   3.176 -0.4241  0.4978  0.8296
    1CHTO   C75  149   7.539   4.651   2.926  0.7486 -0.0184  0.0689
    1CHTO  H147  150   7.549   4.636   2.817  1.7656 -3.0159  0.5507
    1CHTO   N13  151   7.392   4.642   2.946  0.5568 -0.1386  0.1626
    1CHTO  H139  152   7.344   4.727   2.901 -0.0475 -0.9874 -0.8114
    1CHTO  H140  153   7.343   4.556   2.903  1.4052 -0.4485 -0.1938
    1CHTO   C76  154   7.593   4.797   2.955  0.2980 -0.1290  1.1240
    1CHTO  H148  155   7.591   4.809   3.063 -1.6984  1.8467  0.9034
    1CHTO   O49  156   7.728   4.799   2.908  0.0957  0.1448  0.4883
    1CHTO   C77  157   7.814   4.716   2.982  0.5149 -0.4121  0.1769
    1CHTO  H149  158   7.804   4.733   3.089  0.4217  2.6886 -0.2989
    1CHTO   C88  159   7.951   4.755   2.943 -0.1722  0.2098 -0.0509
    1CHTO   O58  160   7.981   4.908   2.974 -0.3073 -0.5176 -0.3688
    1CHTO  H136  161   7.959   4.919   3.065  0.2085 -1.1411 -0.1567
    1CHTO   O51  162   7.524   4.915   2.885 -0.2451 -0.3957 -0.2584
    1CHTO   C78  163   7.468   5.028   2.996 -0.8215 -0.3656 -0.4089
    1CHTO  H150  164   7.496   4.988   3.095  1.6102  1.9966 -0.0814
    1CHTO   C80  165   7.316   5.059   2.996 -0.5257  0.0075 -0.4459
    1CHTO  H152  166   7.289   5.104   2.898 -1.4531 -0.7417 -0.5313
    1CHTO   O55  167   7.243   4.935   2.999 -0.3831 -0.1427 -0.1967
    1CHTO  H134  168   7.210   4.921   2.912 -3.2381  0.5413  0.7320
    1CHTO   C84  169   7.274   5.155   3.108  0.2706  0.7202  0.3225
    1CHTO  H156  170   7.293   5.109   3.205 -3.4055 -0.8982  0.3526
    1CHTO   N15  171   7.123   5.176   3.119 -0.5224 -0.5978 -0.6928
    1CHTO  H143  172   7.101   5.263   3.177 -2.0767 -1.2949 -0.2220
    1CHTO  H144  173   7.089   5.192   3.019  0.4972 -1.0844 -1.1229
    1CHTO   C87  174   7.352   5.285   3.092 -0.5559  0.2236  0.4546
    1CHTO  H159  175   7.311   5.334   3.004  1.3074  1.2834  0.1415
    1CHTO   O53  176   7.513   5.255   3.067 -0.4754  0.5606  0.4988
    1CHTO   C82  177   7.531   5.162   2.959  0.1028 -0.0315 -0.4588
    1CHTO  H154  178   7.484   5.207   2.872  0.8263  1.1892 -0.2342
    1CHTO   C89  179   7.681   5.149   2.922 -0.1887  0.0618  0.1876
    1CHTO   O59  180   7.745   5.111   3.047  0.4460 -0.0201  0.6434
    1CHTO  H137  181   7.835   5.136   3.039  0.5868 -0.8760 -0.6226
    1CHTO   O45  182   7.342   5.392   3.235 -0.0936  0.4730  0.3982
    1CHTO   C67  183   7.249   5.501   3.215 -0.0747 -0.6875  0.3982
    1CHTO  H124  184   7.169   5.476   3.145 -0.0034  1.5161 -0.5292
    1CHTO   C65  185   7.186   5.529   3.358  0.4638  0.4244 -0.1403
    1CHTO  H122  186   7.219   5.444   3.417 -1.9833 -1.6984 -1.7135
    1CHTO   O44  187   7.043   5.519   3.343  0.3958 -0.0350 -0.3046
    1CHTO  H102  188   7.020   5.441   3.296 -0.6842  0.9454 -1.4404
    1CHTO   C63  189   7.260   5.647   3.424 -0.1693 -0.0082 -0.3758
    1CHTO  H120  190   7.367   5.627   3.422 -0.3056 -1.5761  2.8774
    1CHTO   N11  191   7.248   5.657   3.572  0.1876  0.0586  0.2410
    1CHTO  H108  192   7.332   5.615   3.624  0.2910 -1.8295 -1.3838
    1CHTO  H109  193   7.258   5.757   3.609 -0.6901  0.0730  0.4477
    1CHTO   C61  194   7.233   5.776   3.338 -0.0688  0.6094 -0.1838
    1CHTO  H118  195   7.300   5.854   3.377  1.1639  0.6428 -2.2956
    1CHTO   O40  196   7.261   5.758   3.201  0.3012 -0.0950  0.1269
    1CHTO   C68  197   7.324   5.628   3.157  0.1040  0.1805 -0.0248
    1CHTO  H125  198   7.429   5.621   3.190  0.2860 -4.6237 -1.2289
    1CHTO   C72  199   7.314   5.635   3.007  0.4270 -0.1561 -0.4592
    1CHTO   O48  200   7.380   5.750   2.950 -0.2579 -0.1348  0.0783
    1CHTO  H105  201   7.469   5.725   2.936 -0.1214  0.4241 -0.0757
    1CHTO   O38  202   7.101   5.833   3.352 -0.1698  0.3769 -0.5739
    1CHTO   C55  203   7.079   5.980   3.345  0.6106 -0.0855 -0.1113
    1CHTO  H112  204   7.154   6.031   3.284 -0.2180  2.2230  0.7385
    1CHTO   C56  205   7.071   6.042   3.488 -0.1875  0.3829  0.5373
    1CHTO  H113  206   7.002   5.973   3.540 -0.7389 -0.8406 -1.7272
    1CHTO   O42  207   7.200   6.040   3.545  0.3030  0.2626 -0.4669
    1CHTO  H100  208   7.256   6.084   3.485 -1.9230  2.2502 -1.1774
    1CHTO   C57  209   7.004   6.189   3.492  0.3416  0.8080 -0.5505
    1CHTO  H114  210   7.078   6.252   3.443  2.5850 -0.6182  0.9116
    1CHTO   N10  211   6.979   6.235   3.631  0.1838  1.4440 -0.2040
    1CHTO  H106  212   6.949   6.150   3.692  0.4238  0.9956 -0.7023
    1CHTO  H107  213   7.062   6.288   3.675  0.7610  2.5017 -2.5112
    1CHTO   C58  214   6.878   6.193   3.405  0.1622  0.0892 -0.4280
    1CHTO  H115  215   6.803   6.131   3.458  0.1597  1.3421  1.0662
    1CHTO   O37  216   6.909   6.143   3.273  0.1796 -0.0364 -0.3804
    1CHTO   C59  217   6.947   6.006   3.263 -0.1022  0.7138 -0.1124
    1CHTO  H116  218   6.862   5.952   3.303  1.8630 -2.3200  0.1432
    1CHTO   C70  219   6.953   5.976   3.112  0.2268  0.3996  0.5731
    1CHTO   O46  220   6.958   5.834   3.090  0.2412  0.0302  0.8575
    1CHTO  H103  221   7.040   5.796   3.064  2.0609  3.5825  1.1920
    1CHTO   O39  222   6.808   6.352   3.393  0.1645 -0.0494 -0.3091
    1CHTO   C60  223   6.701   6.364   3.296  0.2383  0.2627 -0.6609
    1CHTO  H117  224   6.717   6.290   3.218  3.0460  0.5133 -0.3871
    1CHTO   C62  225   6.565   6.315   3.354 -0.2576 -0.4696  0.5565
    1CHTO  H119  226   6.577   6.209   3.384  2.1708 -0.0856  1.0225
    1CHTO   O43  227   6.533   6.400   3.471 -0.0070  0.0370 -0.5981
    1CHTO  H101  228   6.469   6.361   3.527 -1.1488  1.4508 -0.8912
    1CHTO   C66  229   6.451   6.335   3.243 -0.1932 -0.8810  0.3471
    1CHTO  H123  230   6.475   6.270   3.159  0.5996  1.1878 -1.0736
    1CHTO   N12  231   6.314   6.286   3.282 -0.2242 -0.1109  0.0556
    1CHTO  H110  232   6.244   6.367   3.275 -0.8315 -0.5151  1.3305
    1CHTO  H111  233   6.282   6.199   3.228  1.6986 -1.4010  0.9124
    1CHTO   C69  234   6.444   6.480   3.184 -0.1409  0.1783 -0.0740
    1CHTO  H126  235   6.404   6.545   3.265  1.2410  0.7933  0.1267
    1CHTO   O41  236   6.592   6.527   3.134 -0.0678  0.1023 -0.5856
    1CHTO   C64  237   6.704   6.507   3.235  1.0086 -0.4198 -0.5742
    1CHTO  H121  238   6.694   6.586   3.313  1.1492 -1.1831  0.2223
    1CHTO   C71  239   6.834   6.543   3.173 -0.5980  0.4406  0.5007
    1CHTO   O47  240   6.887   6.445   3.077 -0.0030 -0.0357 -0.0393
    1CHTO  H104  241   6.965   6.472   3.033  0.6169  1.3681  1.8559
    1CHTO   O34  242   6.344   6.469   3.053 -0.0384  0.2230 -0.5902
    1CHTO   C49  243   6.393   6.528   2.922 -0.0254  0.1927  1.0431
    1CHTO   H91  244   6.436   6.627   2.937 -2.1647  1.0214  1.8310
    1CHTO   C47  245   6.269   6.556   2.830  0.0931 -0.3999 -0.0868
    1CHTO   H89  246   6.297   6.603   2.733 -0.1478  0.4654  0.2565
    1CHTO   O33  247   6.184   6.651   2.895 -0.0640 -0.3050  0.5048
    1CHTO   H70  248   6.144   6.697   2.825  1.1530  0.9194  0.5897
    1CHTO   C45  249   6.197   6.423   2.782  0.5910  0.2773 -0.0308
    1CHTO   H87  250   6.176   6.364   2.872 -1.2042  2.0404  0.7255
    1CHTO    N8  251   6.068   6.453   2.714  0.2241  0.0525 -0.0385
    1CHTO   H75  252   6.000   6.369   2.725 -1.3580  1.2811 -0.2782
    1CHTO   H76  253   6.083   6.464   2.607  1.7928 -2.6960 -0.1653
    1CHTO   C43  254   6.300   6.330   2.710  0.0557  0.6263  0.9519
    1CHTO   H85  255   6.240   6.240   2.694  2.3113 -0.5446 -1.2927
    1CHTO   O29  256   6.412   6.307   2.796 -0.4679  0.3044 -0.6662
    1CHTO   C50  257   6.485   6.428   2.843  0.0959  0.1498  0.0258
    1CHTO   H92  258   6.546   6.387   2.924  1.2428  1.5651 -0.0942
    1CHTO   C54  259   6.596   6.497   2.752  0.4089 -0.1936  0.0291
    1CHTO   O36  260   6.715   6.428   2.742 -0.7191 -0.4249  0.6871
    1CHTO   H72  261   6.784   6.491   2.741 -0.7770 -0.3317 -1.6186
    1CHTO   O27  262   6.332   6.375   2.580  0.2291 -0.2213 -0.6191
    1CHTO   C37  263   6.426   6.357   2.477 -0.2682  0.5224  0.2841
    1CHTO   H79  264   6.528   6.384   2.508 -0.2025  1.3571 -0.6264
    1CHTO   C38  265   6.425   6.205   2.434 -0.3607 -0.4809  0.4892
    1CHTO   H80  266   6.322   6.176   2.405  0.4148 -2.8769  0.0174
    1CHTO   O31  267   6.475   6.112   2.534  0.1668  0.1114  0.5622
    1CHTO   H68  268   6.459   6.024   2.504 -0.2545 -0.5946  2.7635
    1CHTO   C39  269   6.521   6.184   2.306 -0.1700 -0.4604 -0.5973
    1CHTO   H81  270   6.622   6.205   2.342 -1.4662  1.8328  1.8679
    1CHTO    N7  271   6.511   6.045   2.238 -0.2034 -0.0366 -0.1501
    1CHTO   H73  272   6.425   6.034   2.174 -1.3381 -0.6827  1.4605
    1CHTO   H74  273   6.599   6.027   2.177  0.5217  0.5812  0.6968
    1CHTO   C40  274   6.465   6.290   2.197  0.0425 -0.3265 -0.0382
    1CHTO   H82  275   6.360   6.263   2.189 -0.4691  1.2673  1.0936
    1CHTO   O26  276   6.472   6.424   2.251 -0.0865 -0.1474 -0.3629
    1CHTO   C41  277   6.382   6.447   2.357  0.3927  0.6418 -0.5698
    1CHTO   H83  278   6.281   6.422   2.323 -0.0220  2.1826 -0.5357
    1CHTO   C52  279   6.381   6.593   2.373  0.1011 -0.3274  0.5179
    1CHTO   O35  280   6.314   6.641   2.472  0.3359  0.0735  0.1400
    1CHTO   H71  281   6.353   6.722   2.498  1.6660 -0.3143 -0.6152
    1CHTO   O28  282   6.542   6.292   2.077  0.2374 -0.4270 -0.6138
    1CHTO   C42  283   6.687   6.283   2.055  0.1553 -0.7128  0.3585
    1CHTO   H84  284   6.720   6.204   2.122 -2.3038 -1.9559  0.1627
    1CHTO   C44  285   6.771   6.411   2.076  0.4530 -0.3040 -0.0819
    1CHTO   H86  286   6.711   6.492   2.036  0.0483 -0.7662 -0.4257
    1CHTO   O32  287   6.777   6.428   2.222  0.1004  0.2281  0.3112
    1CHTO   H69  288   6.830   6.500   2.250 -0.5711  0.1385  1.8995
    1CHTO   C48  289   6.912   6.425   2.014 -0.6118 -0.2464 -0.0573
    1CHTO   H90  290   6.978   6.382   2.090 -1.6641  2.9632  2.8054
    1CHTO    N9  291   6.956   6.565   2.000 -0.0604 -0.0442 -0.0960
    1CHTO   H77  292   6.971   6.595   1.897 -1.6335 -0.5388 -0.4845
    1CHTO   H78  293   7.057   6.569   2.039 -0.3176  1.7857  0.3981
    1CHTO   C51  294   6.929   6.351   1.876  0.5100  0.4732 -0.0658
    1CHTO   H93  295   6.890   6.417   1.798 -0.3384 -0.3859 -0.3802
    1CHTO   O30  296   6.860   6.221   1.879 -0.5179 -0.7354 -0.2862
    1CHTO   C46  297   6.719   6.233   1.908 -0.8254  0.1362 -0.1928
    1CHTO   H88  298   6.673   6.306   1.841 -1.9829 -1.3672 -1.0610
    1CHTO   C53  299   6.648   6.094   1.875 -0.4410 -0.1466  0.6345
    1CHTO   O72  300   6.625   6.076   1.734  0.2700 -0.3919 -0.0065
    1CHTO  H199  301   6.700   6.033   1.696  0.9133  0.7045  0.0060
    1CHTO   O22  302   7.064   6.321   1.842  0.1807  0.5243 -0.0832
    1CHTO   C31  303   7.137   6.346   1.717 -0.3067  0.1308 -0.6860
    1CHTO   H59  304   7.061   6.392   1.650 -0.6716  2.1814  1.0994
    1CHTO   C29  305   7.252   6.448   1.722 -0.6409 -0.3110 -0.4622
    1CHTO   H57  306   7.326   6.402   1.790 -0.3615 -0.1260 -0.6407
    1CHTO   O21  307   7.210   6.576   1.768  0.6922  0.1076  0.1330
    1CHTO   H37  308   7.196   6.593   1.859  1.8093  1.5537  0.0553
    1CHTO   C27  309   7.309   6.478   1.582  0.0881 -0.3594  1.0722
    1CHTO   H55  310   7.230   6.528   1.525  1.7572  1.1751  0.0583
    1CHTO    N5  311   7.429   6.564   1.576  0.1595  0.4289 -0.4354
    1CHTO   H43  312   7.402   6.668   1.581 -0.4345  0.2108  0.9709
    1CHTO   H44  313   7.500   6.531   1.501  0.5293 -1.5461  0.7402
    1CHTO   C25  314   7.343   6.336   1.530 -0.4348 -0.0157  0.4758
    1CHTO   H53  315   7.426   6.282   1.579  0.9659  0.7432 -1.0088
    1CHTO   O17  316   7.228   6.247   1.515  0.2447 -0.7019  0.3903
    1CHTO   C32  317   7.184   6.211   1.642  0.8152 -0.6485 -0.5258
    1CHTO   H60  318   7.264   6.160   1.696  1.3502  0.0146 -0.6891
    1CHTO   C36  319   7.079   6.097   1.629 -0.2620  0.6158  0.1179
    1CHTO   O25  320   6.974   6.136   1.537 -0.0138  0.6770  0.0363
    1CHTO   H40  321   7.010   6.113   1.453 -0.7781  1.8122 -0.6196
    1CHTO   O15  322   7.404   6.358   1.366  0.2097 -0.8137 -0.0476
    1CHTO   C19  323   7.391   6.440   1.244 -0.7641 -0.4289  0.9141
    1CHTO   H47  324   7.341   6.527   1.288  0.7293  0.3973  1.0066
    1CHTO   C20  325   7.519   6.470   1.158  0.0166  0.2905 -0.5560
    1CHTO   H48  326   7.556   6.378   1.112  0.5146  0.4308 -0.4408
    1CHTO   O19  327   7.616   6.521   1.255  0.0913  0.3264 -0.1938
    1CHTO   H35  328   7.614   6.613   1.270 -0.1417 -0.1252  2.8335
    1CHTO   C21  329   7.493   6.573   1.047  0.0106 -0.4962 -0.4666
    1CHTO   H49  330   7.481   6.667   1.100 -0.0577 -0.1785 -1.0419
    1CHTO    N4  331   7.616   6.583   0.961 -0.6562 -0.1589  0.6641
    1CHTO   H41  332   7.602   6.637   0.869  3.0142 -0.1267  0.0745
    1CHTO   H42  333   7.684   6.501   0.945 -0.0387  0.3181  0.8366
    1CHTO   C22  334   7.374   6.512   0.962  0.2720 -0.0310 -0.1541
    1CHTO   H50  335   7.397   6.419   0.911 -1.1419 -0.6940  0.3897
    1CHTO   O14  336   7.263   6.480   1.041 -0.1577  0.3396  0.5509
    1CHTO   C23  337   7.285   6.383   1.146  0.2133 -0.9325  0.1937
    1CHTO   H51  338   7.320   6.294   1.092  0.3129 -1.8126  1.6697
    1CHTO   C34  339   7.147   6.356   1.215 -0.9242 -0.0869 -1.1576
    1CHTO   O23  340   7.100   6.475   1.273  0.1951  0.2779 -0.1459
    1CHTO   H38  341   7.028   6.458   1.331 -0.8830 -2.4341 -2.1540
    1CHTO   O16  342   7.329   6.606   0.866 -0.0957 -0.4312  0.6320
    1CHTO   C24  343   7.245   6.544   0.741 -0.1166 -0.2516  0.9381
    1CHTO   H52  344   7.224   6.438   0.755 -0.4071 -0.0037  2.4087
    1CHTO   C26  345   7.330   6.561   0.612 -0.6230 -0.0525  0.2201
    1CHTO   H54  346   7.344   6.670   0.602 -0.8021 -0.0570 -0.1054
    1CHTO   O20  347   7.462   6.505   0.625 -0.5243 -0.0215  0.3668
    1CHTO   H36  348   7.458   6.420   0.664 -0.3768  0.5667  1.6911
    1CHTO   C30  349   7.248   6.502   0.491 -0.1185 -0.5990  0.5477
    1CHTO   H58  350   7.244   6.392   0.497 -0.0154 -0.6332 -0.0022
    1CHTO    N6  351   7.312   6.536   0.361 -0.0028 -0.1026 -0.4503
    1CHTO   H45  352   7.290   6.473   0.276  0.8865 -0.2642 -0.5649
    1CHTO   H46  353   7.292   6.634   0.320  0.9990  0.5464  0.5890
    1CHTO   C33  354   7.103   6.560   0.506 -0.0751 -0.5138  0.3731
    1CHTO   H61  355   7.112   6.668   0.484  0.7616 -0.9057 -1.3374
    1CHTO   O18  356   7.036   6.546   0.626 -0.0982 -0.4408 -0.2489
    1CHTO   C28  357   7.107   6.616   0.730 -0.3911 -0.6688 -0.0057
    1CHTO   H56  358   7.120   6.722   0.705 -0.8784 -0.4512  0.6557
    1CHTO   C35  359   7.031   6.604   0.865  0.5568 -0.0955 -0.1466
    1CHTO   O24  360   7.008   6.467   0.904  0.7859 -0.2389  0.3908
    1CHTO   H39  361   6.936   6.471   0.965  0.8692 -0.0392  0.4770
    1CHTO    O9  362   7.023   6.503   0.395 -0.0749 -0.0856  0.0844
    1CHTO   C13  363   6.903   6.589   0.341  0.3093  0.1681  0.0309
    1CHTO   H26  364   6.933   6.694   0.318 -0.3310  0.5282  0.8232
    1CHTO   C11  365   6.792   6.580   0.450 -0.3284 -0.4266 -0.5790
    1CHTO   H24  366   6.833   6.660   0.513  2.0094 -2.1532  0.1507
    1CHTO    O8  367   6.788   6.454   0.524 -0.2445 -0.0792  0.3122
    1CHTO    H3  368   6.795   6.382   0.465  0.2509  0.8985 -0.8428
    1CHTO    C9  369   6.656   6.632   0.389  0.3338 -0.2851 -0.3276
    1CHTO   H22  370   6.681   6.723   0.333  1.8667 -0.4488  0.0407
    1CHTO    N2  371   6.555   6.675   0.491 -0.1678  0.2306  0.1887
    1CHTO   H10  372   6.492   6.752   0.448 -1.2287 -0.6005  0.2409
    1CHTO   H11  373   6.612   6.701   0.579 -1.0197 -1.9779  1.4263
    1CHTO    C7  374   6.608   6.528   0.291 -0.3642 -0.6980  0.3124
    1CHTO   H20  375   6.567   6.594   0.212  3.4478  0.3796 -0.8785
    1CHTO    O4  376   6.717   6.470   0.219 -0.2016  0.1946  0.1354
    1CHTO   C14  377   6.840   6.540   0.195 -0.9512  0.1172 -0.4314
    1CHTO   H27  378   6.827   6.628   0.129  4.8976  0.9421 -0.7645
    1CHTO   C18  379   6.950   6.452   0.128 -0.3041  0.2005 -0.3080
    1CHTO   O13  380   7.054   6.529   0.072  0.0750 -0.2600  0.2161
    1CHTO    H7  381   7.112   6.466   0.033 -2.4458 -2.4887 -0.0887
    1CHTO    O2  382   6.524   6.416   0.355  0.0064  0.2069 -0.3945
    1CHTO    C1  383   6.420   6.366   0.279  0.1460 -0.2513  0.2470
    1CHTO   H14  384   6.424   6.397   0.172 -1.2054  0.1324  0.3012
    1CHTO    C2  385   6.272   6.398   0.337 -0.7076  0.0566  0.7112
    1CHTO   H15  386   6.284   6.372   0.443  0.0067  3.6762  1.5870
    1CHTO    O6  387   6.243   6.538   0.313 -0.1705  0.4972  0.0188
    1CHTO    H1  388   6.309   6.594   0.350  1.2289  0.6608 -2.5815
    1CHTO    C3  389   6.168   6.298   0.263 -0.4622 -1.0922  0.5045
    1CHTO   H16  390   6.144   6.329   0.160  0.1501  0.9642  0.9625
    1CHTO    N1  391   6.037   6.304   0.325  0.0872  0.6199 -0.6083
    1CHTO    H8  392   6.020   6.389   0.389  0.6320 -1.2792  2.1087
    1CHTO    H9  393   5.959   6.297   0.250 -0.2559 -1.8685 -0.0680
    1CHTO    C4  394   6.223   6.144   0.254  0.5919 -0.5028  0.4147
    1CHTO   H17  395   6.228   6.105   0.355 -0.5504 -0.3072  0.5497
    1CHTO    O1  396   6.352   6.137   0.194  0.3033  0.4615  0.2740
    1CHTO    C5  397   6.445   6.209   0.282 -0.5285  0.5199 -0.1855
    1CHTO   H18  398   6.433   6.175   0.385 -2.3936 -1.2047 -0.9311
    1CHTO   C16  399   6.592   6.172   0.235  0.4086 -0.1554 -0.0614
    1CHTO   O11  400   6.602   6.031   0.233 -0.5105  0.5130 -0.3863
    1CHTO    H5  401   6.682   6.000   0.194 -0.3172 -0.3003  0.6089
    1CHTO    O3  402   6.142   6.056   0.168 -0.2053  0.0711  0.2366
    1CHTO    C6  403   6.065   5.950   0.220  1.1089  0.4948  0.1975
    1CHTO   H19  404   6.046   5.961   0.326 -2.1040  1.9640 -0.4749
    1CHTO    C8  405   5.926   5.933   0.146 -0.2663  0.3312 -0.4091
    1CHTO   H21  406   5.943   5.938   0.038  1.6502  0.7784 -0.0993
    1CHTO    O7  407   5.849   6.056   0.173 -0.0912  0.0998  0.1089
    1CHTO    H2  408   5.872   6.135   0.127  2.0844 -0.5483  0.0450
    1CHTO   C12  409   5.847   5.819   0.206 -0.3701  0.2686 -0.0103
    1CHTO   H25  410   5.840   5.836   0.316 -0.1503 -0.6735  0.1544
    1CHTO    N3  411   5.708   5.798   0.146 -0.0014  0.4130 -0.1949
    1CHTO   H12  412   5.713   5.718   0.073 -0.3304 -0.5547  0.8310
    1CHTO   H13  413   5.627   5.772   0.212  0.3835  0.1227  0.1627
    1CHTO   C15  414   5.932   5.686   0.179 -0.1093  0.7776  0.7992
    1CHTO   H28  415   5.957   5.678   0.073  0.5216  0.2196  0.9857
    1CHTO   O10  416   5.888   5.569   0.237 -0.1170  0.7645  0.5656
    1CHTO    H4  417   5.948   5.497   0.241 -0.7065  0.1705 -0.9574
    1CHTO    O5  418   6.061   5.707   0.247 -0.1807 -0.0063  0.2210
    1CHTO   C10  419   6.140   5.818   0.196  0.3419 -0.7710 -0.4985
    1CHTO   H23  420   6.165   5.815   0.090 -3.9675 -1.2767 -1.6192
    1CHTO   C17  421   6.269   5.807   0.283 -0.3996 -0.1187  0.2547
    1CHTO   O12  422   6.345   5.695   0.245  0.3466 -0.2687  0.5544
    1CHTO    H6  423   6.390   5.700   0.163  3.4845 -0.0020  2.2034
    2CHTO  H203  424   5.792   3.807   5.293 -1.7835  0.1748  1.2489
    2CHTO   O82  425   5.791   3.900   5.282  0.7445  0.1791  0.6192
    2CHTO  C123  426   5.784   3.947   5.145  0.0339 -0.0971  0.7111
    2CHTO  H227  427   5.864   3.899   5.087 -0.3080 -0.2725  0.3793
    2CHTO   O77  428   5.665   3.904   5.090  0.0082 -0.1182 -0.8807
    2CHTO  C118  429   5.651   3.925   4.944 -0.3469  0.3453  0.6485
    2CHTO  H222  430   5.727   3.875   4.882  0.6611  2.4552  0.1178
    2CHTO  C125  431   5.515   3.873   4.907  0.6677 -0.1392 -0.8883
    2CHTO   O84  432   5.494   3.731   4.934 -0.4071  0.4445 -0.3961
    2CHTO  H205  433   5.404   3.707   4.929 -0.7415  0.8784  2.3438
    2CHTO  C114  434   5.664   4.078   4.912  0.0480  0.3052 -0.8387
    2CHTO  H218  435   5.578   4.128   4.958 -0.1172 -0.9789  0.2633
    2CHTO  C116  436   5.803   4.133   4.979  0.3415 -0.0790 -0.2596
    2CHTO  H220  437   5.884   4.074   4.932  2.0373  0.5973  1.7104
    2CHTO   O79  438   5.820   4.268   4.937  0.6125  0.5222  0.2622
    2CHTO  H201  439   5.834   4.266   4.844  1.1822  1.2922  0.3289
    2CHTO  C120  440   5.799   4.100   5.136 -0.4219 -0.0648  0.0695
    2CHTO  H224  441   5.711   4.157   5.173  0.3342  1.8859 -1.0164
    2CHTO   N21  442   5.925   4.150   5.199  0.0940 -0.1965  0.3310
    2CHTO  H211  443   5.971   4.239   5.160  2.1397 -1.6376 -0.6243
    2CHTO  H212  444   5.896   4.162   5.303  1.3312  0.7043  0.5808
    2CHTO   O75  445   5.662   4.081   4.772 -0.1004 -0.5269  0.3513
    2CHTO  C112  446   5.587   4.216   4.720  0.9556  0.2000 -0.6825
    2CHTO  H216  447   5.615   4.303   4.781  1.0553 -0.0653 -0.3508
    2CHTO   O73  448   5.444   4.192   4.723  0.0646 -0.2572  0.4614
    2CHTO  C113  449   5.365   4.307   4.688  0.2475 -0.4830 -0.4176
    2CHTO  H217  450   5.405   4.388   4.752  1.8180  0.3655 -2.4249
    2CHTO  C124  451   5.215   4.276   4.727 -0.0469  0.1802  0.0100
    2CHTO   O83  452   5.116   4.360   4.669  0.4360  1.1355  0.5629
    2CHTO  H204  453   5.037   4.338   4.715 -1.0075 -1.0275 -2.7634
    2CHTO  C109  454   5.388   4.340   4.539 -0.7717  0.7431  0.1516
    2CHTO  H213  455   5.357   4.251   4.482  0.6026  1.0980 -1.1958
    2CHTO  C110  456   5.550   4.364   4.513 -0.0364 -0.0199  0.6279
    2CHTO  H214  457   5.576   4.460   4.557 -1.2489 -0.6112  2.7090
    2CHTO   O78  458   5.579   4.384   4.374  0.5868  0.0958 -0.0028
    2CHTO  H200  459   5.515   4.446   4.342 -0.4531 -1.8205 -1.7280
    2CHTO  C111  460   5.630   4.245   4.567  0.3349  0.2109  0.6937
    2CHTO  H215  461   5.612   4.156   4.506  1.3166  0.6869 -0.3207
    2CHTO   N19  462   5.775   4.274   4.561 -0.4546  0.1793 -0.8138
    2CHTO  H207  463   5.804   4.377   4.576  0.9635 -0.1978 -0.9175
    2CHTO  H208  464   5.814   4.233   4.469  0.0575  2.1983 -1.5264
    2CHTO   O74  465   5.324   4.466   4.496  0.4477  0.3363  0.0982
    2CHTO  C115  466   5.258   4.447   4.369 -0.0468  0.3522 -0.2674
    2CHTO  H219  467   5.314   4.378   4.304  0.0415  0.5654 -0.4178
    2CHTO   O76  468   5.119   4.396   4.383  0.0201 -0.3089  0.3159
    2CHTO  C122  469   5.011   4.486   4.410  0.6699  0.2893 -0.1847
    2CHTO  H226  470   5.029   4.546   4.500 -0.0667 -1.3312  1.0638
    2CHTO  C126  471   4.888   4.394   4.446  0.0377 -0.8065 -0.3725
    2CHTO   O85  472   4.862   4.304   4.340  0.5315 -0.4997 -0.3983
    2CHTO  H206  473   4.816   4.358   4.278 -0.6009  3.1204  3.3837
    2CHTO  C121  474   4.997   4.584   4.290 -0.6840 -0.7116 -0.4653
    2CHTO  H225  475   4.914   4.535   4.234 -0.7146 -0.1032 -0.9579
    2CHTO   O81  476   4.959   4.714   4.339  0.4059 -0.2373  0.9475
    2CHTO  H202  477   4.954   4.775   4.268 -2.2221 -0.4703  0.8884
    2CHTO  C119  478   5.124   4.592   4.199 -0.1677 -0.0629  0.4036
    2CHTO  H223  479   5.122   4.504   4.136  1.1941 -0.5765  1.0467
    2CHTO  C117  480   5.262   4.584   4.282 -0.5403 -0.3107 -0.0114
    2CHTO  H221  481   5.260   4.658   4.361  1.9345 -0.0388 -0.1610
    2CHTO   N20  482   5.389   4.608   4.204 -0.5608  0.4824  0.8299
    2CHTO  H209  483   5.468   4.657   4.259 -0.3809  1.5136 -0.3279
    2CHTO  H210  484   5.372   4.672   4.119 -2.2017 -0.5179  0.3975
    2CHTO   O80  485   5.123   4.716   4.084  0.2861 -0.7224  0.2920
    2CHTO  C103  486   5.030   4.711   3.974 -0.5223 -0.1188 -0.1758
    2CHTO  H190  487   5.075   4.760   3.888  1.1352 -0.8301  0.2710
    2CHTO  C101  488   4.987   4.578   3.908 -0.1097 -0.0349  0.6794
    2CHTO  H188  489   4.943   4.517   3.987 -0.4554  0.2525  0.7065
    2CHTO   O68  490   5.108   4.496   3.855  0.3639  0.0094  0.2211
    2CHTO  H168  491   5.165   4.474   3.926 -0.3493 -2.7704 -0.0040
    2CHTO   C99  492   4.875   4.615   3.789 -0.0458 -0.3142  0.4907
    2CHTO  H186  493   4.927   4.680   3.716  0.8680 -2.5967 -0.9407
    2CHTO   N17  494   4.820   4.491   3.718  0.1430 -0.1944 -0.6531
    2CHTO  H174  495   4.866   4.409   3.771  0.0333  0.3872  0.3509
    2CHTO  H175  496   4.850   4.486   3.614  1.0864  0.2949 -0.4063
    2CHTO   C97  497   4.761   4.697   3.853  0.5495 -0.2585  0.4745
    2CHTO  H184  498   4.721   4.630   3.931  0.8298 -0.8056  0.1487
    2CHTO   O64  499   4.812   4.817   3.915 -0.2454  0.1826  0.3856
    2CHTO  C104  500   4.903   4.795   4.026  0.6863  0.4466 -0.2822
    2CHTO  H191  501   4.850   4.733   4.098 -0.1286  2.9867  1.3814
    2CHTO  C108  502   4.928   4.924   4.105 -0.5448 -0.3087 -0.8389
    2CHTO   O71  503   4.815   4.994   4.156  0.2523 -0.4256  0.4246
    2CHTO  H171  504   4.835   5.082   4.181 -2.2271 -0.0905  1.4746
    2CHTO   O62  505   4.662   4.749   3.761 -0.3374  0.2004  0.6132
    2CHTO   C91  506   4.534   4.780   3.809 -0.1611  0.1079 -0.1199
    2CHTO  H178  507   4.538   4.788   3.917  1.0494  1.4808 -0.2552
    2CHTO   C92  508   4.435   4.661   3.789  0.2333 -0.5916 -0.1660
    2CHTO  H179  509   4.475   4.566   3.829  0.3022 -0.9727 -1.1181
    2CHTO   O66  510   4.315   4.682   3.870 -0.4129 -0.0218  0.0657
    2CHTO  H166  511   4.337   4.708   3.957 -0.6396 -2.0128  0.7333
    2CHTO   C93  512   4.376   4.655   3.638 -0.1152 -0.4095 -0.8494
    2CHTO  H180  513   4.281   4.601   3.653 -0.9206  1.0582 -0.4946
    2CHTO   N16  514   4.455   4.569   3.552  1.0090  0.4832  0.0072
    2CHTO  H172  515   4.561   4.587   3.544  1.2311 -0.4395  0.7592
    2CHTO  H173  516   4.411   4.568   3.454  0.2996 -1.3094  0.3205
    2CHTO   C94  517   4.351   4.797   3.575  1.0733  0.4467  0.2645
    2CHTO  H181  518   4.424   4.822   3.498 -0.9606 -0.1014 -1.9044
    2CHTO   O61  519   4.354   4.896   3.678 -0.1539 -0.0563 -0.3569
    2CHTO   C95  520   4.484   4.914   3.743 -0.4534 -0.0667  0.5089
    2CHTO  H182  521   4.554   4.944   3.666 -0.6927  0.4636  0.4993
    2CHTO  C106  522   4.470   5.039   3.838 -0.3524  0.1878  0.5165
    2CHTO   O69  523   4.574   5.050   3.936  0.2233  0.0779  0.4560
    2CHTO  H169  524   4.660   5.072   3.906  0.1349  0.4760  0.4830
    2CHTO   O63  525   4.224   4.800   3.512  0.1127  1.0644 -0.1856
    2CHTO   C96  526   4.173   4.958   3.488 -0.1830  0.8336 -0.5295
    2CHTO  H183  527   4.166   5.011   3.583  1.4707 -0.5723  0.4038
    2CHTO   C98  528   4.026   4.943   3.438  0.0108 -0.7260  0.1845
    2CHTO  H185  529   4.008   4.865   3.363  1.0203 -1.1943  0.4330
    2CHTO   O67  530   3.955   4.894   3.555 -0.6980  0.2004  0.2062
    2CHTO  H167  531   3.924   4.964   3.610 -2.7463  0.0468 -0.7043
    2CHTO  C102  532   3.973   5.086   3.387 -0.1129  0.0212 -0.4276
    2CHTO  H189  533   3.988   5.156   3.470 -2.2834 -1.5073  1.2872
    2CHTO   N18  534   3.828   5.097   3.352  0.4434 -0.7702 -0.3444
    2CHTO  H176  535   3.765   5.103   3.439  1.5204  2.9866  0.2542
    2CHTO  H177  536   3.793   5.012   3.295  0.3861 -2.4156  2.0784
    2CHTO  C105  537   4.064   5.132   3.267 -1.0279 -0.1481 -0.2173
    2CHTO  H192  538   4.020   5.095   3.174 -0.3559 -1.7404  0.0861
    2CHTO   O65  539   4.196   5.079   3.261  0.1206  0.1361 -0.1510
    2CHTO  C100  540   4.263   5.032   3.378 -0.3043 -0.2122 -0.2601
    2CHTO  H187  541   4.329   4.958   3.333  3.4311  1.9748  1.3424
    2CHTO  C107  542   4.351   5.143   3.443 -0.3218  0.2487  0.2775
    2CHTO   O70  543   4.281   5.254   3.498 -0.1243  0.5486  0.1058
    2CHTO  H170  544   4.250   5.219   3.579 -0.5665 -1.7152 -1.0050
    2CHTO   O57  545   4.070   5.304   3.299 -0.5867 -0.6594 -0.3191
    2CHTO   C85  546   4.064   5.390   3.183 -0.4284 -0.1734  0.7535
    2CHTO  H157  547   3.980   5.351   3.123 -0.4040  0.5771  0.2235
    2CHTO   C83  548   4.200   5.367   3.099  1.3758 -0.2461 -0.2389
    2CHTO  H155  549   4.213   5.260   3.082  0.5802 -0.4410  0.3700
    2CHTO   O56  550   4.306   5.408   3.190  0.2879  0.2477 -0.3114
    2CHTO  H135  551   4.328   5.348   3.259  0.4534 -0.8482 -1.3061
    2CHTO   C81  552   4.192   5.447   2.969 -0.3707 -0.3950  0.0551
    2CHTO  H153  553   4.112   5.406   2.908  1.5939 -0.8772 -2.3012
    2CHTO   N14  554   4.312   5.422   2.880 -0.7919  0.3157 -0.8699
    2CHTO  H141  555   4.295   5.466   2.783  0.9764 -0.1044 -1.3889
    2CHTO  H142  556   4.405   5.454   2.923 -0.5564  0.2545 -1.3248
    2CHTO   C79  557   4.168   5.604   2.992 -0.3934  0.2488  0.1926
    2CHTO  H151  558   4.136   5.646   2.896 -1.3449  0.0251  0.4021
    2CHTO   O52  559   4.059   5.631   3.086  0.4482 -0.0592 -0.1138
    2CHTO   C86  560   4.047   5.546   3.211  0.5745 -0.2796 -0.4878
    2CHTO  H158  561   4.123   5.583   3.283 -1.3644 -0.5619  1.7622
    2CHTO   C90  562   3.913   5.569   3.279 -0.2363 -0.2331 -0.3676
    2CHTO   O60  563   3.899   5.702   3.332  0.0182  0.3708  0.2814
    2CHTO  H138  564   3.952   5.707   3.409  1.9089 -0.0566 -0.9685
    2CHTO   O50  565   4.288   5.677   3.034  0.4228  0.3710  0.3795
    2CHTO   C73  566   4.346   5.797   3.018  0.4194  0.2265  0.7237
    2CHTO  H145  567   4.283   5.863   2.957 -1.3081  0.6102  2.8432
    2CHTO   C74  568   4.489   5.773   2.948  0.1268  0.2005  0.6728
    2CHTO  H146  569   4.473   5.721   2.853  2.2003  1.6516 -0.5142
    2CHTO   O54  570   4.533   5.903   2.920 -0.5278 -0.1429  0.4425
    2CHTO  H133  571   4.568   5.948   2.994 -2.5658 -0.5034  1.6692
    2CHTO   C75  572   4.588   5.691   3.049 -0.0237 -0.1818 -0.4268
    2CHTO  H147  573   4.547   5.590   3.063  1.1490 -0.7312 -0.9363
    2CHTO   N13  574   4.719   5.663   2.993  0.0325  0.8764 -0.2430
    2CHTO  H139  575   4.781   5.751   2.980  0.4506  0.8758  1.7051
    2CHTO  H140  576   4.723   5.615   2.896 -3.4075  0.3302 -0.1734
    2CHTO   C76  577   4.592   5.755   3.193  0.6822 -0.9572 -0.2135
    2CHTO  H148  578   4.645   5.850   3.181 -0.7465  0.0573  1.2381
    2CHTO   O49  579   4.456   5.780   3.235 -0.4487 -0.3954 -1.0538
    2CHTO   C77  580   4.374   5.865   3.152  0.3148 -0.5240 -0.2342
    2CHTO  H149  581   4.422   5.962   3.139  1.9069 -1.2359  0.2352
    2CHTO   C88  582   4.239   5.897   3.226  0.3677  0.0379 -0.3791
    2CHTO   O58  583   4.269   5.946   3.349  0.3815  0.2244  0.5619
    2CHTO  H136  584   4.200   6.006   3.368 -2.1189 -2.0746 -0.9165
    2CHTO   O51  585   4.662   5.652   3.313  0.3059  0.3445  0.0629
    2CHTO   C78  586   4.708   5.727   3.437 -0.0333  0.6683  0.3152
    2CHTO  H150  587   4.647   5.820   3.438 -0.8465  0.1354  2.7161
    2CHTO   C80  588   4.852   5.772   3.433  0.2442  0.8314 -0.0954
    2CHTO  H152  589   4.912   5.680   3.424 -1.3006 -0.2348  0.3660
    2CHTO   O55  590   4.869   5.842   3.307  0.0490  0.1497 -0.3612
    2CHTO  H134  591   4.955   5.878   3.292 -0.0964 -0.0159 -1.6435
    2CHTO   C84  592   4.887   5.857   3.558  0.2595  0.8794  0.3866
    2CHTO  H156  593   4.822   5.945   3.567 -0.7956  0.1192  0.2769
    2CHTO   N15  594   5.031   5.913   3.551 -0.6220  0.6087 -0.6826
    2CHTO  H143  595   5.028   6.018   3.529 -0.6629  1.5310  3.3907
    2CHTO  H144  596   5.080   5.909   3.646  0.8323 -0.0764 -1.4437
    2CHTO   C87  597   4.863   5.766   3.682 -0.1061 -0.1513 -0.4613
    2CHTO  H159  598   4.937   5.687   3.681  0.2683  0.2063 -1.5784
    2CHTO   O53  599   4.710   5.699   3.688 -0.1058 -0.5067  0.3632
    2CHTO   C82  600   4.679   5.638   3.561  0.1888  0.2893 -0.8534
    2CHTO  H154  601   4.743   5.550   3.557  0.2048  0.2141  0.7084
    2CHTO   C89  602   4.532   5.593   3.554  0.4841  0.1281  0.5113
    2CHTO   O59  603   4.501   5.465   3.609  0.6128 -0.5140 -0.1967
    2CHTO  H137  604   4.539   5.447   3.693 -0.3449  1.8579  0.7884
    2CHTO   O45  605   4.873   5.853   3.808 -0.3240  0.0676  0.0498
    2CHTO   C67  606   4.876   5.776   3.926 -0.0183 -0.3598  0.3121
    2CHTO  H124  607   4.845   5.674   3.902  0.9678 -0.5280 -0.2607
    2CHTO   C65  608   5.024   5.759   3.984  0.2517  0.2922  0.3243
    2CHTO  H122  609   5.072   5.856   3.968  0.0025  0.3605 -0.0261
    2CHTO   O44  610   5.093   5.655   3.910  0.6225 -0.6136 -0.1025
    2CHTO  H102  611   5.161   5.611   3.957  1.8548  1.0610 -0.2824
    2CHTO   C63  612   5.017   5.755   4.144  0.6326  0.1972  0.0730
    2CHTO  H120  613   5.011   5.857   4.182  1.7183  0.3117 -0.0276
    2CHTO   N11  614   5.145   5.713   4.203 -0.1005  0.0935 -0.2510
    2CHTO  H108  615   5.214   5.777   4.152 -0.0172  0.8602  0.7933
    2CHTO  H109  616   5.166   5.614   4.168  1.5861 -0.0974  1.2409
    2CHTO   C61  617   4.886   5.689   4.205  1.1162  0.3572  0.6420
    2CHTO  H118  618   4.891   5.709   4.313  0.0935  2.2001  0.3660
    2CHTO   O40  619   4.766   5.741   4.155  0.3313 -0.5290  0.8014
    2CHTO   C68  620   4.778   5.823   4.039 -0.5143 -0.2207  0.6946
    2CHTO  H125  621   4.813   5.925   4.066 -0.6523  0.3721 -1.2771
    2CHTO   C72  622   4.631   5.840   3.988 -0.4110  0.2660 -0.5356
    2CHTO   O48  623   4.535   5.863   4.091  0.0106 -0.5685  0.2537
    2CHTO  H105  624   4.512   5.782   4.132 -1.6216  0.8344  2.2154
    2CHTO   O38  625   4.882   5.546   4.180  0.3270 -0.4808  0.5369
    2CHTO   C55  626   4.839   5.462   4.288  1.0479 -0.2133 -0.8049
    2CHTO  H112  627   4.770   5.521   4.351 -0.1894 -2.3119 -0.1438
    2CHTO   C56  628   4.955   5.405   4.376  0.6417 -0.4506 -0.1135
    2CHTO  H113  629   5.029   5.370   4.302 -1.3018 -2.6045 -1.0874
    2CHTO   O42  630   5.019   5.499   4.468  0.0755 -0.5616 -0.2572
    2CHTO  H100  631   5.100   5.458   4.489 -0.5632 -1.6713  0.1073
    2CHTO   C57  632   4.921   5.283   4.469 -0.4312  0.6448 -0.3417
    2CHTO  H114  633   4.893   5.323   4.567  0.6476  1.3909 -0.3284
    2CHTO   N10  634   5.040   5.194   4.494  0.1675  0.2763 -0.5529
    2CHTO  H106  635   5.129   5.254   4.486  1.8161 -1.9914  0.3539
    2CHTO  H107  636   5.048   5.107   4.430 -2.1333 -1.2366  1.1294
    2CHTO   C58  637   4.810   5.200   4.414 -0.4766 -1.1530  0.1450
    2CHTO  H115  638   4.848   5.128   4.339 -0.1025 -0.7976 -0.0057
    2CHTO   O37  639   4.702   5.281   4.366  0.1065 -0.4218  0.2195
    2CHTO   C59  640   4.744   5.352   4.241 -0.1310 -0.0109  0.0148
    2CHTO  H116  641   4.794   5.295   4.163  1.3621  1.3628 -0.0496
    2CHTO   C70  642   4.612   5.417   4.177  0.2878  0.0617  0.0213
    2CHTO   O46  643   4.554   5.520   4.267  0.3298  0.2310 -0.0805
    2CHTO  H103  644   4.561   5.607   4.234  0.8150  1.2982  2.7120
    2CHTO   O39  645   4.743   5.112   4.540  0.2363 -0.2281  0.0571
    2CHTO   C60  646   4.635   5.035   4.511 -0.2079 -0.2383  0.0306
    2CHTO  H117  647   4.584   5.075   4.423 -0.6034 -0.0151  0.3605
    2CHTO   C62  648   4.684   4.899   4.455 -0.2875  0.0314 -0.1842
    2CHTO  H119  649   4.765   4.933   4.387  1.1070 -2.0701  0.3843
    2CHTO   O43  650   4.736   4.807   4.551  0.1479  0.7464 -0.2713
    2CHTO  H101  651   4.752   4.723   4.511 -0.7964  0.4410  0.0011
    2CHTO   C66  652   4.557   4.848   4.368 -0.6445  0.0380  0.2027
    2CHTO  H123  653   4.523   4.925   4.298 -1.8971 -1.5863 -1.0104
    2CHTO   N12  654   4.584   4.733   4.280 -0.2066  0.5121 -0.1991
    2CHTO  H110  655   4.655   4.747   4.200  0.4178 -1.1470  0.0470
    2CHTO  H111  656   4.490   4.697   4.241  1.7010 -3.6650 -1.1883
    2CHTO   C69  657   4.427   4.829   4.457 -0.2578 -0.5972  0.3571
    2CHTO  H126  658   4.404   4.724   4.484 -2.7953 -0.1114  0.2707
    2CHTO   O41  659   4.429   4.922   4.600  0.0306  0.2103  0.5059
    2CHTO   C64  660   4.538   5.022   4.622  0.0003  0.0797 -0.4756
    2CHTO  H121  661   4.599   4.983   4.706  1.2931  0.4058 -1.2424
    2CHTO   C71  662   4.472   5.159   4.659 -0.4587  0.0823 -0.5402
    2CHTO   O47  663   4.417   5.144   4.787  0.1411  0.2309  0.3725
    2CHTO  H104  664   4.392   5.227   4.823 -0.2050  0.2083  0.1856
    2CHTO   O34  665   4.295   4.894   4.364  0.2224 -0.1458  0.1552
    2CHTO   C49  666   4.188   5.022   4.356 -0.0039 -0.7656  0.0703
    2CHTO   H91  667   4.157   5.034   4.460 -0.1939  0.4862 -0.1260
    2CHTO   C47  668   4.064   4.979   4.270  0.4551 -0.4721  0.5359
    2CHTO   H89  669   3.995   5.066   4.266  2.2306  0.9627  0.7515
    2CHTO   O33  670   3.993   4.872   4.345 -0.0890 -0.2431 -0.2624
    2CHTO   H70  671   3.985   4.888   4.437 -0.3007 -1.0868 -0.1288
    2CHTO   C45  672   4.118   4.950   4.125  0.0851  0.0368 -0.0920
    2CHTO   H87  673   4.192   4.871   4.139 -0.8445 -0.5056  1.8545
    2CHTO    N8  674   4.010   4.899   4.039 -0.3754 -0.8974 -0.0806
    2CHTO   H75  675   4.048   4.801   4.010  1.0804 -0.2549 -0.4252
    2CHTO   H76  676   4.003   4.965   3.953 -0.0788 -0.5561  0.1581
    2CHTO   C43  677   4.195   5.083   4.069  0.4839  0.5870  0.4802
    2CHTO   H85  678   4.245   5.051   3.978 -0.1210  0.6751  0.1165
    2CHTO   O29  679   4.284   5.152   4.162  0.4270 -1.0924  0.5940
    2CHTO   C50  680   4.255   5.152   4.304  0.5560 -0.0815 -0.1063
    2CHTO   H92  681   4.345   5.158   4.366 -0.2220  1.2482  0.9203
    2CHTO   C54  682   4.166   5.273   4.350 -0.8463 -0.0462 -0.5810
    2CHTO   O36  683   4.211   5.395   4.299 -0.1447  0.4488  0.9377
    2CHTO   H72  684   4.146   5.459   4.321 -0.9315  0.1788 -0.5456
    2CHTO   O27  685   4.095   5.181   4.036  0.3478 -0.8817  0.3750
    2CHTO   C37  686   4.078   5.269   3.923 -0.5030  0.1065 -0.2115
    2CHTO   H79  687   4.107   5.213   3.833 -4.0514 -1.7901 -0.2398
    2CHTO   C38  688   3.925   5.288   3.902  0.7382 -0.4184  0.7035
    2CHTO   H80  689   3.883   5.315   4.000  0.2513 -0.4270  0.5006
    2CHTO   O31  690   3.872   5.163   3.858  0.2230  0.1345 -0.0768
    2CHTO   H68  691   3.899   5.093   3.915 -0.8129  0.6753  1.1282
    2CHTO   C39  692   3.889   5.396   3.795 -0.6672 -0.0545  0.2064
    2CHTO   H81  693   3.934   5.364   3.700  1.6045  1.5614  0.6948
    2CHTO    N7  694   3.743   5.421   3.774 -0.1410  0.1046  1.2058
    2CHTO   H73  695   3.718   5.480   3.861 -1.2975  1.1130  0.2171
    2CHTO   H74  696   3.690   5.328   3.788  0.1657 -0.1769  0.5536
    2CHTO   C40  697   3.971   5.525   3.825  0.2169 -0.1168 -0.5067
    2CHTO   H82  698   3.938   5.563   3.921  0.1535 -2.1412  0.2959
    2CHTO   O26  699   4.111   5.487   3.822 -0.0680  0.6985 -0.3575
    2CHTO   C41  700   4.154   5.404   3.934  0.0129 -0.5130 -0.2166
    2CHTO   H83  701   4.133   5.443   4.035 -1.2529 -0.8208 -0.3474
    2CHTO   C52  702   4.308   5.376   3.920 -0.5180 -0.2842 -0.4185
    2CHTO   O35  703   4.373   5.505   3.912 -0.4304 -0.2508  0.2589
    2CHTO   H71  704   4.435   5.519   3.981  0.3883 -3.1808  0.1720
    2CHTO   O28  705   3.974   5.623   3.715 -0.5699  0.1847 -0.3017
    2CHTO   C42  706   4.009   5.764   3.719 -0.4297  0.9427 -0.3712
    2CHTO   H84  707   3.984   5.798   3.619  0.6012  0.6889 -0.7204
    2CHTO   C44  708   4.168   5.788   3.733  0.6149  0.3582  0.9589
    2CHTO   H86  709   4.205   5.731   3.818  0.2492 -2.0770 -0.4639
    2CHTO   O32  710   4.222   5.735   3.609 -0.2730  0.3015  0.2139
    2CHTO   H69  711   4.208   5.798   3.541 -0.7012  1.4769  1.3673
    2CHTO   C48  712   4.203   5.941   3.744 -0.3729  0.1652  0.4589
    2CHTO   H90  713   4.188   5.987   3.647 -1.2299 -0.5635  0.2428
    2CHTO    N9  714   4.349   5.966   3.771 -0.9810  0.4698 -0.0785
    2CHTO   H77  715   4.391   6.047   3.713 -1.1779  1.1774  0.7587
    2CHTO   H78  716   4.366   5.988   3.875  0.4139 -1.5378  0.1626
    2CHTO   C51  717   4.112   5.991   3.866 -0.2437 -0.1194 -0.5133
    2CHTO   H93  718   4.138   5.915   3.939 -0.9862 -1.3342 -1.4853
    2CHTO   O30  719   3.971   5.989   3.833 -0.1355  0.1815  0.0834
    2CHTO   C46  720   3.927   5.843   3.826  0.3081  0.2389 -0.3122
    2CHTO   H88  721   3.939   5.792   3.922  1.1983 -1.4266 -1.2884
    2CHTO   C53  722   3.781   5.848   3.783 -0.3723  0.1900  0.2515
    2CHTO   O72  723   3.695   5.888   3.892 -0.1924 -0.0419 -0.3935
    2CHTO  H199  724   3.609   5.916   3.864 -1.1723 -0.6614  1.8741
    2CHTO   O22  725   4.140   6.123   3.908 -0.0764 -0.9158  0.4740
    2CHTO   C31  726   4.118   6.183   4.044 -0.0451  0.3586  0.4634
    2CHTO   H59  727   4.195   6.261   4.061  0.3502  0.2757 -0.8705
    2CHTO   C29  728   3.974   6.254   4.068 -0.0410 -0.1978  0.2039
    2CHTO   H57  729   3.902   6.175   4.043 -2.0669  2.1059 -1.5917
    2CHTO   O21  730   3.962   6.350   3.961 -0.6953  0.2376 -0.6970
    2CHTO   H37  731   3.883   6.399   3.979 -1.4017 -0.6723 -1.2616
    2CHTO   C27  732   3.940   6.305   4.211  0.1159  0.7961  0.1914
    2CHTO   H55  733   4.000   6.397   4.222 -2.1506  2.3277  0.2001
    2CHTO    N5  734   3.799   6.346   4.240 -0.1753 -0.2887 -0.3021
    2CHTO   H43  735   3.745   6.392   4.158 -0.5548  0.7013  0.4965
    2CHTO   H44  736   3.796   6.419   4.319 -0.5410  0.2369 -0.7909
    2CHTO   C25  737   3.985   6.193   4.313  0.0066  0.0804  0.0857
    2CHTO   H53  738   3.918   6.107   4.301  1.1007 -0.4933 -2.1262
    2CHTO   O17  739   4.127   6.150   4.294  0.1764 -0.0348 -0.2747
    2CHTO   C32  740   4.142   6.089   4.163 -0.4672  0.2698  0.0287
    2CHTO   H60  741   4.069   6.008   4.159  2.3706 -2.4891  1.4783
    2CHTO   C36  742   4.282   6.027   4.169  0.7164  0.6359  0.5237
    2CHTO   O25  743   4.388   6.123   4.191  0.1684 -0.0747 -0.1623
    2CHTO   H40  744   4.466   6.096   4.146  0.6798  0.2293  0.5338
    2CHTO   O15  745   3.980   6.244   4.457 -0.4892  0.3098 -0.2053
    2CHTO   C19  746   3.878   6.255   4.569 -0.4695 -0.2596 -0.3444
    2CHTO   H47  747   3.792   6.300   4.518 -1.4232  0.1122  1.5873
    2CHTO   C20  748   3.845   6.115   4.630  0.0831  0.5257 -0.5974
    2CHTO   H48  749   3.932   6.070   4.681  0.2402 -0.2408 -1.5415
    2CHTO   O19  750   3.804   6.040   4.519  0.0541 -0.2790 -0.2449
    2CHTO   H35  751   3.796   5.948   4.533  1.3528 -0.4884 -0.8249
    2CHTO   C21  752   3.725   6.115   4.740  0.3531 -0.2782 -0.2102
    2CHTO   H49  753   3.633   6.145   4.690  0.8451 -0.3367 -1.1812
    2CHTO    N4  754   3.698   5.975   4.788 -0.3409  0.2687  0.4460
    2CHTO   H41  755   3.787   5.932   4.832  0.6454  1.5965 -0.1960
    2CHTO   H42  756   3.615   5.973   4.857 -1.0628 -2.5782 -0.4557
    2CHTO   C22  757   3.763   6.223   4.845  0.1981  0.0678 -0.0446
    2CHTO   H50  758   3.841   6.184   4.911  0.8006 -0.7930 -1.2403
    2CHTO   O14  759   3.796   6.346   4.774 -0.3181  0.0374 -0.5723
    2CHTO   C23  760   3.913   6.351   4.685  0.2438 -0.4289  0.3524
    2CHTO   H51  761   3.999   6.319   4.746  0.6593  2.0779  1.1809
    2CHTO   C34  762   3.936   6.496   4.633  0.6146  0.3787  0.1789
    2CHTO   O23  763   3.822   6.549   4.561  0.1163 -0.2264  0.2605
    2CHTO   H38  764   3.771   6.486   4.516 -3.2977  1.7340  1.2241
    2CHTO   O16  765   3.652   6.249   4.926 -0.3282 -0.0397 -0.4242
    2CHTO   C24  766   3.705   6.306   5.073 -0.0465  0.7557 -0.3603
    2CHTO   H52  767   3.809   6.337   5.071  0.8637 -2.2691 -1.9282
    2CHTO   C26  768   3.688   6.189   5.174 -0.5397 -0.1398 -0.1525
    2CHTO   H54  769   3.585   6.150   5.162 -0.3290 -0.4954 -0.8715
    2CHTO   O20  770   3.772   6.072   5.139  0.5412 -0.5238 -0.1021
    2CHTO   H36  771   3.731   6.014   5.077  0.1931  0.1855 -0.5401
    2CHTO   C30  772   3.705   6.229   5.321 -0.2624 -0.2473 -0.3643
    2CHTO   H58  773   3.814   6.236   5.335  0.0920 -2.2559 -1.9170
    2CHTO    N6  774   3.661   6.129   5.418  0.4930 -0.2696 -0.1202
    2CHTO   H45  775   3.735   6.062   5.459  0.3234  1.3804  3.0356
    2CHTO   H46  776   3.578   6.074   5.377  1.1313  0.7512 -2.9009
    2CHTO   C33  777   3.634   6.362   5.353 -0.1765  0.8439 -0.1187
    2CHTO   H61  778   3.526   6.338   5.354 -0.4494  2.0337 -0.5007
    2CHTO   O18  779   3.665   6.465   5.253 -0.6176 -0.2498  0.3916
    2CHTO   C28  780   3.622   6.427   5.117 -0.7338  0.9889  0.0914
    2CHTO   H56  781   3.517   6.397   5.114 -0.0431 -1.4414 -1.0046
    2CHTO   C35  782   3.623   6.543   5.010  0.4213 -0.1752  0.5362
    2CHTO   O24  783   3.508   6.635   5.014 -0.3402 -0.0603 -0.3277
    2CHTO   H39  784   3.538   6.711   4.970 -1.4630 -0.4898 -1.8765
    2CHTO    O9  785   3.657   6.413   5.485  0.3291 -0.2326  0.0545
    2CHTO   C13  786   3.568   6.539   5.531  0.1459  0.2789  0.2986
    2CHTO   H26  787   3.475   6.538   5.470  1.0750 -0.3914 -1.1207
    2CHTO   C11  788   3.649   6.677   5.511 -0.6935 -0.2507  0.3056
    2CHTO   H24  789   3.660   6.701   5.404 -1.6234  3.4499  0.9709
    2CHTO    O8  790   3.779   6.660   5.566 -0.3350  0.0756  0.0987
    2CHTO    H3  791   3.827   6.741   5.570 -0.3793  0.0825  0.5329
    2CHTO    C9  792   3.575   6.793   5.579  0.2941  0.5289 -0.5645
    2CHTO   H22  793   3.469   6.786   5.550  0.4541 -1.9617 -0.6359
    2CHTO    N2  794   3.616   6.923   5.525 -0.0225  0.2844  0.0978
    2CHTO   H10  795   3.570   6.931   5.428  1.9063  1.3856 -0.7699
    2CHTO   H11  796   3.584   7.008   5.582  1.4244  0.6460  0.3904
    2CHTO    C7  797   3.574   6.774   5.737 -0.1221 -0.6956  0.3137
    2CHTO   H20  798   3.482   6.822   5.776 -0.5468  0.1343 -1.6212
    2CHTO    O4  799   3.579   6.631   5.769 -0.0130 -0.6363 -0.7711
    2CHTO   C14  800   3.530   6.525   5.687 -0.2485  0.8660  0.3772
    2CHTO   H27  801   3.419   6.530   5.691 -0.4698 -2.0903 -1.2390
    2CHTO   C18  802   3.567   6.388   5.754  0.3816 -0.3008  0.3955
    2CHTO   O13  803   3.496   6.283   5.690  0.1759  0.5410  1.1936
    2CHTO    H7  804   3.436   6.232   5.740  0.9751 -0.8710  0.7635
    2CHTO    O2  805   3.727   6.843   5.798 -0.2711  0.2248  0.0437
    2CHTO    C1  806   3.709   6.892   5.929  0.2250 -0.0379  0.1440
    2CHTO   H14  807   3.636   6.831   5.984  0.4421  1.8499  2.6162
    2CHTO    C2  808   3.671   7.041   5.935 -0.1454 -0.7677 -0.5926
    2CHTO   H15  809   3.745   7.097   5.876 -1.5498  2.3136  0.4174
    2CHTO    O6  810   3.547   7.059   5.869  0.2986  0.3702 -0.3426
    2CHTO    H1  811   3.482   7.009   5.915  0.3532  0.3799 -0.2544
    2CHTO    C3  812   3.688   7.107   6.084 -0.2377  0.6913 -1.0057
    2CHTO   H16  813   3.608   7.069   6.150  0.5754 -0.0859 -0.4656
    2CHTO    N1  814   3.670   7.258   6.071  0.6161  0.0230  0.0188
    2CHTO    H8  815   3.755   7.306   6.024 -0.9060 -0.0953 -2.9232
    2CHTO    H9  816   3.576   7.266   6.019  1.3134 -2.8057 -1.7856
    2CHTO    C4  817   3.821   7.059   6.147  0.1324  0.2834 -0.7377
    2CHTO   H17  818   3.900   7.112   6.095 -0.7302  0.8088 -1.5235
    2CHTO    O1  819   3.838   6.921   6.137  0.3050 -0.0715 -0.7847
    2CHTO    C5  820   3.849   6.873   6.003  0.3735 -0.6983 -0.0392
    2CHTO   H18  821   3.927   6.927   5.948 -0.2869 -0.3022 -0.5906
    2CHTO   C16  822   3.885   6.723   6.005  0.1048  0.0755  0.5212
    2CHTO   O11  823   4.015   6.688   6.029 -0.1060  0.3917 -0.7356
    2CHTO    H5  824   4.056   6.645   5.957  1.2866 -0.4844  0.5268
    2CHTO    O3  825   3.827   7.084   6.291 -0.5340  0.0010  0.3301
    2CHTO    C6  826   3.961   7.091   6.347  0.3503  0.4144  0.0924
    2CHTO   H19  827   4.043   7.069   6.278  1.1644  0.1766  1.1182
    2CHTO    C8  828   3.985   7.233   6.396  0.1610 -0.3541 -0.0857
    2CHTO   H21  829   3.903   7.267   6.459  0.5115 -1.3756  0.9505
    2CHTO    O7  830   3.998   7.314   6.281  0.4678 -0.2200  0.2569
    2CHTO    H2  831   4.085   7.303   6.247  0.3695  1.6579 -0.6677
    2CHTO   C12  832   4.122   7.245   6.482  0.7050 -0.6636  0.3778
    2CHTO   H25  833   4.198   7.229   6.402  0.2117 -0.0808 -0.2121
    2CHTO    N3  834   4.144   7.385   6.547 -0.9244 -0.6942  1.3145
    2CHTO   H12  835   4.060   7.405   6.612 -1.4077 -0.4857  0.6348
    2CHTO   H13  836   4.174   7.465   6.482 -2.4355  0.0348  1.4814
    2CHTO   C15  837   4.129   7.131   6.586  0.0922  0.0455  0.3970
    2CHTO   H28  838   4.063   7.152   6.671 -1.6398 -1.7482 -0.4569
    2CHTO   O10  839   4.284   7.102   6.627 -0.2785 -0.0637 -0.2359
    2CHTO    H4  840   4.325   7.152   6.695  1.7685 -1.8407 -0.1103
    2CHTO    O5  841   4.103   7.005   6.525 -0.1787  0.2206 -0.0425
    2CHTO   C10  842   3.974   6.991   6.469  0.3257  0.4556 -0.1035
    2CHTO   H23  843   3.907   7.010   6.553  0.1335 -0.4593 -0.0450
    2CHTO   C17  844   3.967   6.842   6.441  0.2678 -0.2420 -0.3033
    2CHTO   O12  845   3.825   6.811   6.429  0.0413  0.2082  0.4637
    2CHTO    H6  846   3.818   6.719   6.414  0.6543 -0.3950  3.5677
    3CHTO  H203  847   5.998   2.890   2.621  0.8833 -0.8216 -1.3640
    3CHTO   O82  848   6.053   2.960   2.591  0.2644  0.3381  0.0933
    3CHTO  C123  849   6.091   2.923   2.453 -0.6381 -0.4302 -0.7436
    3CHTO  H227  850   6.128   2.819   2.453  0.2243 -0.1294 -0.2812
    3CHTO   O77  851   5.978   2.932   2.374  0.1855 -0.1104  0.2251
    3CHTO  C118  852   5.990   2.879   2.239 -0.2346 -0.7282 -0.5533
    3CHTO  H222  853   6.023   2.775   2.246  1.8250  0.0159  1.5720
    3CHTO  C125  854   5.850   2.879   2.171 -0.2059 -0.0141  0.3183
    3CHTO   O84  855   5.770   2.773   2.231 -0.1634  0.0767  0.6692
    3CHTO  H205  856   5.762   2.772   2.324 -1.7218  0.9196  0.5603
    3CHTO  C114  857   6.080   2.985   2.167 -0.3072 -0.0588  0.2457
    3CHTO  H218  858   6.045   3.086   2.186 -2.2723 -0.6817  0.0826
    3CHTO  C116  859   6.218   2.991   2.244  0.0768  0.4327  0.0060
    3CHTO  H220  860   6.268   2.894   2.223 -1.5665 -0.4943  0.3282
    3CHTO   O79  861   6.303   3.092   2.183 -0.6338 -0.0814  0.5409
    3CHTO  H201  862   6.274   3.172   2.223 -1.4845  0.4362 -1.1068
    3CHTO  C120  863   6.200   3.019   2.399  0.4510 -0.0205  1.0280
    3CHTO  H224  864   6.169   3.125   2.412  0.0440  0.2407 -1.7679
    3CHTO   N21  865   6.335   3.000   2.463  0.1350  0.2332 -0.6763
    3CHTO  H211  866   6.407   3.029   2.388 -0.8361  2.4462 -0.7949
    3CHTO  H212  867   6.353   2.896   2.486  1.1344  0.9984  2.2906
    3CHTO   O75  868   6.090   2.962   2.031 -0.7206  0.1259  1.1345
    3CHTO  C112  869   6.180   2.845   1.970 -0.1663  0.3170  0.0362
    3CHTO  H216  870   6.175   2.761   2.041  1.5864 -1.0488 -1.4074
    3CHTO   O73  871   6.315   2.896   1.960 -0.1143  0.1050 -0.1977
    3CHTO  C113  872   6.412   2.795   1.936 -0.3604  0.0941 -0.3932
    3CHTO  H217  873   6.404   2.700   1.993  0.9343 -1.5039 -2.7696
    3CHTO  C124  874   6.549   2.856   1.973 -0.0076  0.2468 -0.2951
    3CHTO   O83  875   6.588   2.958   1.887  0.0147 -0.7800  0.6644
    3CHTO  H204  876   6.516   3.015   1.870  0.5433 -0.1527  0.5241
    3CHTO  C109  877   6.381   2.752   1.785 -0.9627  0.2771  0.3278
    3CHTO  H213  878   6.378   2.843   1.724 -0.0046 -0.8737 -1.5171
    3CHTO  C110  879   6.243   2.687   1.767  0.3004  0.4634  0.1224
    3CHTO  H214  880   6.235   2.589   1.814 -1.6020 -0.2803 -1.6885
    3CHTO   O78  881   6.222   2.671   1.627 -0.0939  0.3125 -0.2751
    3CHTO  H200  882   6.292   2.624   1.586  0.3352  0.5022  0.2379
    3CHTO  C111  883   6.140   2.788   1.824  0.1859 -0.0437  0.3338
    3CHTO  H215  884   6.144   2.881   1.765  1.0454 -0.4904 -0.3160
    3CHTO   N19  885   5.997   2.746   1.823  0.0691 -1.0308  0.4079
    3CHTO  H207  886   5.988   2.645   1.860  2.8468 -1.4916 -0.0658
    3CHTO  H208  887   5.952   2.766   1.727 -1.0613  0.0636  1.1569
    3CHTO   O74  888   6.495   2.677   1.738  0.1884 -0.3940  0.2211
    3CHTO  C115  889   6.515   2.640   1.595  0.3751 -0.0451  0.1014
    3CHTO  H219  890   6.448   2.698   1.532 -0.6943  1.2090  2.3303
    3CHTO   O76  891   6.661   2.680   1.546 -0.0189 -0.1438 -0.4211
    3CHTO  C122  892   6.769   2.608   1.599  0.3828  0.3244 -0.2229
    3CHTO  H226  893   6.755   2.626   1.706 -0.4064  1.6053 -0.5328
    3CHTO  C126  894   6.912   2.663   1.561 -1.0200  0.4151 -0.3997
    3CHTO   O85  895   6.925   2.799   1.602  0.1050  0.0216 -0.1478
    3CHTO  H206  896   6.897   2.852   1.529  2.1444  1.1481 -0.1457
    3CHTO  C121  897   6.754   2.451   1.563  0.2132  0.3672  0.1527
    3CHTO  H225  898   6.832   2.427   1.487 -0.3955 -0.0081 -0.3591
    3CHTO   O81  899   6.796   2.374   1.677 -0.7359  0.2226  0.2359
    3CHTO  H202  900   6.727   2.346   1.734  2.1759 -1.6464  3.0619
    3CHTO  C119  901   6.616   2.415   1.497 -0.6882 -0.4394  0.2244
    3CHTO  H223  902   6.623   2.453   1.395 -3.1306 -2.0612 -0.5785
    3CHTO  C117  903   6.497   2.483   1.573  0.6354 -0.0296  0.0947
    3CHTO  H221  904   6.484   2.437   1.671  0.1415  3.1791  1.6146
    3CHTO   N20  905   6.367   2.453   1.509 -0.1284  0.4745  0.0394
    3CHTO  H209  906   6.365   2.517   1.422  2.4306  1.3982  0.5985
    3CHTO  H210  907   6.382   2.359   1.458  1.0345  0.8530 -0.3185
    3CHTO   O80  908   6.602   2.254   1.457 -0.4676 -0.7180 -0.4437
    3CHTO  C103  909   6.607   2.143   1.557 -0.0951 -0.4798 -0.1932
    3CHTO  H190  910   6.693   2.145   1.624  0.0462  1.4777 -0.3999
    3CHTO  C101  911   6.471   2.134   1.641  0.2021  0.7545 -1.1252
    3CHTO  H188  912   6.396   2.179   1.576 -0.3937  0.3021 -0.7554
    3CHTO   O68  913   6.496   2.214   1.754 -0.2316 -0.0116  0.1738
    3CHTO  H168  914   6.417   2.251   1.789 -1.2415 -0.8185 -1.1907
    3CHTO   C99  915   6.434   1.983   1.679 -1.0126  0.7569  0.3294
    3CHTO  H186  916   6.489   1.954   1.771  0.6971  1.5538 -0.4147
    3CHTO   N17  917   6.290   1.971   1.705  0.2299 -0.0684 -0.1840
    3CHTO  H174  918   6.261   1.932   1.802  1.9886  0.0223  0.3963
    3CHTO  H175  919   6.226   1.935   1.626 -0.3436 -0.0588  0.2645
    3CHTO   C97  920   6.460   1.875   1.568 -0.3636  0.4370 -0.4757
    3CHTO  H184  921   6.396   1.888   1.480 -1.9219 -0.4604  0.5157
    3CHTO   O64  922   6.601   1.889   1.533 -0.3689  0.1305 -0.0017
    3CHTO  C104  923   6.621   2.018   1.458 -0.2933  0.3390  0.3105
    3CHTO  H191  924   6.543   2.028   1.382 -0.2703  0.5452  0.3161
    3CHTO  C108  925   6.759   2.017   1.380  0.1265  0.4190 -0.4039
    3CHTO   O71  926   6.858   2.022   1.478  0.0672 -0.4473 -0.0757
    3CHTO  H171  927   6.942   1.994   1.447  0.8093  1.6897 -0.0286
    3CHTO   O62  928   6.455   1.738   1.617 -0.2567  0.0333 -0.3559
    3CHTO   C91  929   6.356   1.655   1.550 -0.3094 -0.1197 -0.2263
    3CHTO  H178  930   6.271   1.719   1.526 -0.8567 -1.2001 -1.2630
    3CHTO   C92  931   6.300   1.536   1.635  0.2238 -0.2588  0.0818
    3CHTO  H179  932   6.384   1.482   1.681 -0.5090  0.0036  1.7486
    3CHTO   O66  933   6.240   1.596   1.747  0.1814 -0.0727 -0.5947
    3CHTO  H166  934   6.165   1.553   1.783  0.6807  0.6757  1.3952
    3CHTO   C93  935   6.200   1.436   1.575  0.2109  0.3404 -0.6846
    3CHTO  H180  936   6.097   1.475   1.584 -0.0338 -0.0328 -1.7860
    3CHTO   N16  937   6.203   1.307   1.651  0.2814 -0.2485 -0.3902
    3CHTO  H172  938   6.118   1.248   1.621  0.3161 -0.4392 -0.1098
    3CHTO  H173  939   6.296   1.258   1.626 -0.7168 -1.8862 -0.9728
    3CHTO   C94  940   6.225   1.421   1.419 -0.1006  0.3570  0.4690
    3CHTO  H181  941   6.211   1.320   1.382  0.9940  0.1680  0.5785
    3CHTO   O61  942   6.361   1.454   1.384 -0.2662  0.1177 -0.0640
    3CHTO   C95  943   6.416   1.587   1.415 -0.1551  0.0270 -0.1673
    3CHTO  H182  944   6.524   1.574   1.428  0.1641  0.7734 -1.8666
    3CHTO  C106  945   6.397   1.678   1.285  0.1633  0.3470  0.1372
    3CHTO   O69  946   6.456   1.638   1.160  0.2219  0.1134  0.3037
    3CHTO  H169  947   6.454   1.545   1.155 -0.7327  0.1877 -1.1259
    3CHTO   O63  948   6.131   1.516   1.341  0.4221  0.0050  0.5270
    3CHTO   C96  949   5.986   1.459   1.315 -0.0534 -0.2201  0.1137
    3CHTO  H183  950   5.953   1.374   1.375  1.3899 -0.6591  0.3040
    3CHTO   C98  951   5.973   1.413   1.165  0.4546 -0.4382 -0.7802
    3CHTO  H185  952   6.015   1.493   1.102  0.9362 -0.4269 -0.4492
    3CHTO   O67  953   6.057   1.305   1.150  0.1962 -0.3550 -0.1712
    3CHTO  H167  954   6.101   1.292   1.068 -0.6015  1.7843 -0.9848
    3CHTO  C102  955   5.810   1.380   1.134  0.1080  0.0191 -0.4482
    3CHTO  H189  956   5.777   1.297   1.199  1.1748  0.0723  0.1738
    3CHTO   N18  957   5.783   1.336   1.002  0.5546  0.0404 -0.5828
    3CHTO  H176  958   5.870   1.285   0.964  1.8990  0.4030  1.8619
    3CHTO  H177  959   5.700   1.268   1.000  1.1708 -0.7003 -3.8422
    3CHTO  C105  960   5.729   1.508   1.176 -0.4192  0.0872 -0.7703
    3CHTO  H192  961   5.775   1.592   1.125 -1.6162 -0.1731 -2.2865
    3CHTO   O65  962   5.745   1.525   1.318  0.0440 -0.1960 -0.1555
    3CHTO  C100  963   5.881   1.569   1.345 -0.4578 -0.0138 -0.9701
    3CHTO  H187  964   5.904   1.657   1.283  0.8387  1.8508  2.0321
    3CHTO  C107  965   5.884   1.611   1.495 -0.1333 -0.0117 -0.1413
    3CHTO   O70  966   5.849   1.493   1.566  0.1190 -0.1689 -0.2157
    3CHTO  H170  967   5.761   1.498   1.597  0.5052  0.4822  0.7979
    3CHTO   O57  968   5.576   1.518   1.122  0.1166 -0.0779 -0.0888
    3CHTO   C85  969   5.531   1.600   1.021  0.1930  0.6740  0.5222
    3CHTO  H157  970   5.586   1.577   0.927  0.2603  1.2731  0.4131
    3CHTO   C83  971   5.566   1.751   1.054  0.4695  0.2692  0.3652
    3CHTO  H155  972   5.675   1.756   1.057  0.5682 -2.1960  2.0715
    3CHTO   O56  973   5.522   1.776   1.191  0.3162 -0.6538  0.3407
    3CHTO  H135  974   5.532   1.865   1.216 -0.6488 -0.6154  0.5892
    3CHTO   C81  975   5.515   1.842   0.937  0.3433  0.2149  0.5527
    3CHTO  H153  976   5.562   1.815   0.843  1.1912 -2.6787  1.7665
    3CHTO   N14  977   5.560   1.984   0.961  0.0584  0.1261 -0.0590
    3CHTO  H141  978   5.493   2.019   1.037  0.2497 -0.5677  0.4325
    3CHTO  H142  979   5.660   1.984   0.998 -0.1718 -1.7618  0.6092
    3CHTO   C79  980   5.357   1.822   0.921  0.3377  0.1891 -0.1345
    3CHTO  H151  981   5.328   1.877   0.831  3.2612  0.4209 -0.9943
    3CHTO   O52  982   5.315   1.681   0.901 -0.0075  0.2690  0.2279
    3CHTO   C86  983   5.373   1.587   0.999  0.2274 -0.2502  0.4521
    3CHTO  H158  984   5.313   1.611   1.089 -1.5461  0.9634 -1.0171
    3CHTO   C90  985   5.324   1.450   0.955  0.1069  0.0485  0.2781
    3CHTO   O60  986   5.394   1.423   0.831  0.5113  0.3353  0.4162
    3CHTO  H138  987   5.341   1.373   0.771  1.5663 -1.5764  1.0230
    3CHTO   O50  988   5.283   1.869   1.034  0.2416 -0.1807 -0.5976
    3CHTO   C73  989   5.150   1.916   1.049  0.1221 -0.3612 -1.2203
    3CHTO  H145  990   5.083   1.838   1.010 -0.2859 -0.1532 -0.9448
    3CHTO   C74  991   5.122   2.048   0.963  0.6893  0.1445 -0.4959
    3CHTO  H146  992   5.144   2.034   0.856 -1.9540 -3.8827 -0.6311
    3CHTO   O54  993   4.987   2.083   0.974  0.2118  0.0505 -0.0494
    3CHTO  H133  994   4.927   2.012   0.989 -0.8210  0.6824 -1.1893
    3CHTO   C75  995   5.209   2.159   1.034  0.3474 -0.2389 -0.1957
    3CHTO  H147  996   5.315   2.131   1.025  0.6657  1.3347 -1.6830
    3CHTO   N13  997   5.192   2.294   0.975 -0.0512 -0.4257 -0.2560
    3CHTO  H139  998   5.164   2.369   1.047  1.6210  0.8107 -0.8478
    3CHTO  H140  999   5.274   2.325   0.910 -1.5201  0.9646 -1.4936
    3CHTO   C76 1000   5.188   2.165   1.200 -0.5630 -0.1856  0.1782
    3CHTO  H148 1001   5.091   2.208   1.222 -0.1836  1.0304 -0.4692
    3CHTO   O49 1002   5.198   2.028   1.259  0.1954  0.8800  0.0165
    3CHTO   C77 1003   5.117   1.932   1.200  0.0958  0.1554 -0.1270
    3CHTO  H149 1004   5.012   1.960   1.209  0.5299  1.4893  0.8692
    3CHTO   C88 1005   5.123   1.804   1.275 -0.4233  0.6585 -0.3094
    3CHTO   O58 1006   5.265   1.741   1.288  0.2763  0.2532  0.0888
    3CHTO  H136 1007   5.277   1.700   1.372 -1.2221 -0.3892  0.0019
    3CHTO   O51 1008   5.303   2.254   1.269  0.1724  0.4023 -0.1577
    3CHTO   C78 1009   5.306   2.219   1.436  0.5007 -1.3166 -0.2113
    3CHTO  H150 1010   5.238   2.138   1.472  0.0452 -1.3673 -1.1887
    3CHTO   C80 1011   5.262   2.357   1.503 -0.2417  0.5825  0.4630
    3CHTO  H152 1012   5.329   2.439   1.470  4.0252 -2.6175  0.7202
    3CHTO   O55 1013   5.127   2.376   1.455 -0.1455 -0.5068 -0.7168
    3CHTO  H134 1014   5.099   2.455   1.497  2.3475 -0.5893  1.2041
    3CHTO   C84 1015   5.271   2.352   1.664  0.2550 -0.1460 -0.3126
    3CHTO  H156 1016   5.182   2.300   1.698 -1.3361  1.7660 -1.4662
    3CHTO   N15 1017   5.251   2.491   1.718  0.3230 -0.4264 -0.0493
    3CHTO  H143 1018   5.156   2.524   1.680  2.4496  3.2705 -2.4531
    3CHTO  H144 1019   5.326   2.563   1.695  0.5215 -1.5157 -3.0309
    3CHTO   C87 1020   5.418   2.301   1.703  0.0122  0.6557  1.0475
    3CHTO  H159 1021   5.493   2.369   1.662 -0.4952  1.6050  1.6532
    3CHTO   O53 1022   5.441   2.165   1.630  0.5200  0.0842 -0.3517
    3CHTO   C82 1023   5.446   2.179   1.488 -0.0594 -0.4178 -0.4896
    3CHTO  H154 1024   5.516   2.257   1.458 -1.1167  0.4565 -0.7084
    3CHTO   C89 1025   5.495   2.039   1.431  0.4600 -0.4576 -0.2151
    3CHTO   O59 1026   5.511   2.036   1.289  0.4852 -0.3376  0.2050
    3CHTO  H137 1027   5.426   2.033   1.249 -0.3898  1.0869  1.8829
    3CHTO   O45 1028   5.406   2.267   1.864 -0.4400  0.0033  0.0784
    3CHTO   C67 1029   5.515   2.313   1.944  0.1782 -0.1585  0.1112
    3CHTO  H124 1030   5.601   2.312   1.878 -0.3493  2.5050 -0.6788
    3CHTO   C65 1031   5.487   2.458   2.000 -0.3205  0.0587 -0.2998
    3CHTO  H122 1032   5.392   2.501   1.968  0.3155  1.5531 -0.2364
    3CHTO   O44 1033   5.594   2.531   1.943 -0.2268 -0.2920 -0.5336
    3CHTO  H102 1034   5.576   2.623   1.938 -3.1816 -0.8377 -0.4941
    3CHTO   C63 1035   5.489   2.472   2.156  0.2323 -0.9381 -0.2595
    3CHTO  H120 1036   5.402   2.416   2.191 -0.0610  0.0432  0.6167
    3CHTO   N11 1037   5.469   2.611   2.218  0.3063  0.0847  0.6735
    3CHTO  H108 1038   5.553   2.631   2.280  0.9781 -0.0563 -0.1841
    3CHTO  H109 1039   5.386   2.613   2.286 -0.4312  0.6414 -0.2245
    3CHTO   C61 1040   5.607   2.393   2.213 -0.1519 -0.1827  0.5560
    3CHTO  H118 1041   5.578   2.371   2.317  2.2764  0.3636  1.3728
    3CHTO   O40 1042   5.637   2.258   2.154  0.3613  0.0148  0.0511
    3CHTO   C68 1043   5.539   2.202   2.056 -0.7451 -0.2493 -0.2100
    3CHTO  H125 1044   5.447   2.181   2.114  0.0605 -2.4567  0.3212
    3CHTO   C72 1045   5.589   2.070   1.997  0.4380  0.0901 -0.5905
    3CHTO   O48 1046   5.715   2.090   1.944  0.3192  0.2142 -0.0977
    3CHTO  H105 1047   5.780   2.068   2.008 -1.3965 -1.8548  0.9715
    3CHTO   O38 1048   5.733   2.463   2.211  0.1199 -0.3438  0.2393
    3CHTO   C55 1049   5.840   2.434   2.310 -0.0763  0.2034 -0.0391
    3CHTO  H112 1050   5.825   2.327   2.335  0.0455 -0.0019 -0.8515
    3CHTO   C56 1051   5.841   2.526   2.438  0.0723  0.0589  0.8489
    3CHTO  H113 1052   5.856   2.633   2.417 -1.8857  0.2516  0.3345
    3CHTO   O42 1053   5.711   2.527   2.505 -0.3769 -0.4917  0.3555
    3CHTO  H100 1054   5.655   2.585   2.458 -0.7719  0.1919  1.6655
    3CHTO   C57 1055   5.951   2.473   2.529 -0.0797  0.4219 -0.0102
    3CHTO  H114 1056   5.912   2.375   2.554 -0.2434  0.3240 -0.6367
    3CHTO   N10 1057   5.971   2.551   2.652  0.0722 -0.5050 -0.1241
    3CHTO  H106 1058   5.888   2.616   2.674  2.1436  1.6261  1.7212
    3CHTO  H107 1059   5.981   2.484   2.736  3.0587  0.6752  0.5232
    3CHTO   C58 1060   6.082   2.466   2.446  0.2728  0.0994 -0.5153
    3CHTO  H115 1061   6.120   2.567   2.419 -2.0149  1.2356  0.3592
    3CHTO   O37 1062   6.076   2.384   2.326  0.0404 -0.2566 -0.1302
    3CHTO   C59 1063   5.981   2.437   2.238  0.4661 -0.6730 -0.2579
    3CHTO  H116 1064   6.011   2.539   2.214 -1.5237 -0.5602 -2.4547
    3CHTO   C70 1065   5.974   2.355   2.111  0.2182 -0.0108 -0.2805
    3CHTO   O46 1066   6.095   2.351   2.041  0.6213 -0.7222 -0.1602
    3CHTO  H103 1067   6.081   2.283   1.978 -1.9807  0.0012 -0.4343
    3CHTO   O39 1068   6.193   2.391   2.537  0.3166  0.2731 -0.2224
    3CHTO   C60 1069   6.325   2.400   2.485 -0.2936 -0.5284  0.1509
    3CHTO  H117 1070   6.325   2.381   2.378  1.2991  1.4515 -0.2529
    3CHTO   C62 1071   6.384   2.545   2.504  0.0481 -0.3464  0.7861
    3CHTO  H119 1072   6.325   2.611   2.438  0.2096 -1.0711 -0.0958
    3CHTO   O43 1073   6.376   2.581   2.646 -0.5819  0.2915 -0.7956
    3CHTO  H101 1074   6.406   2.670   2.644  0.6054 -0.1311 -1.7837
    3CHTO   C66 1075   6.542   2.541   2.451 -0.3906  0.1105  0.4997
    3CHTO  H123 1076   6.542   2.521   2.344  0.0358  0.4527  0.4328
    3CHTO   N12 1077   6.606   2.677   2.464 -0.4625 -0.2110  0.0530
    3CHTO  H110 1078   6.699   2.681   2.409 -0.9221  0.1129 -0.7144
    3CHTO  H111 1079   6.536   2.756   2.441  1.2789  1.4184  0.2184
    3CHTO   C69 1080   6.627   2.432   2.513 -0.2513 -0.2278  0.5094
    3CHTO  H126 1081   6.629   2.445   2.624 -0.5548 -3.8928  1.0148
    3CHTO   O41 1082   6.547   2.297   2.484 -0.8851  0.1863 -0.4112
    3CHTO   C64 1083   6.409   2.291   2.550 -0.5286 -0.7015  0.8474
    3CHTO  H121 1084   6.412   2.319   2.657  0.0412 -0.9822  0.9064
    3CHTO   C71 1085   6.344   2.146   2.534  0.1373 -0.1000 -0.0631
    3CHTO   O47 1086   6.433   2.035   2.543  0.1121  0.2489  0.3370
    3CHTO  H104 1087   6.420   1.973   2.475 -0.1302  0.1117  0.5060
    3CHTO   O34 1088   6.779   2.425   2.453 -0.3779  0.3559 -0.3083
    3CHTO   C49 1089   6.870   2.341   2.357  0.1525  0.6978 -0.4591
    3CHTO   H91 1090   6.972   2.360   2.393  0.0248  1.2528 -0.3816
    3CHTO   C47 1091   6.843   2.379   2.211 -0.0177 -0.3115 -0.7421
    3CHTO   H89 1092   6.917   2.319   2.153 -1.6657 -0.0406 -3.1790
    3CHTO   O33 1093   6.867   2.520   2.198 -0.7943  0.1830  1.0141
    3CHTO   H70 1094   6.883   2.547   2.110 -0.6860  0.4127  1.1047
    3CHTO   C45 1095   6.700   2.327   2.167 -0.6017 -0.1132 -0.2435
    3CHTO   H87 1096   6.622   2.369   2.233 -0.0483 -0.4300  0.6136
    3CHTO    N8 1097   6.663   2.375   2.029 -0.2563  0.4477  0.4240
    3CHTO   H75 1098   6.711   2.310   1.959  0.7273  1.7986 -0.1807
    3CHTO   H76 1099   6.677   2.481   2.011  2.2958  0.8035  3.9320
    3CHTO   C43 1100   6.700   2.171   2.180 -0.4798 -0.2011 -0.4786
    3CHTO   H85 1101   6.604   2.128   2.152 -0.1963 -0.1649 -1.5149
    3CHTO   O29 1102   6.742   2.129   2.312 -0.1616 -0.1584 -0.0151
    3CHTO   C50 1103   6.854   2.188   2.383 -0.0969  0.0789  0.0899
    3CHTO   H92 1104   6.846   2.167   2.491  2.6289  0.5087  0.3982
    3CHTO   C54 1105   6.982   2.105   2.357 -0.6815 -0.1798 -0.6235
    3CHTO   O36 1106   6.953   1.973   2.406  0.4648 -0.5018 -0.1917
    3CHTO   H72 1107   6.923   1.917   2.337  0.6447 -0.2399 -0.4798
    3CHTO   O27 1108   6.778   2.092   2.080 -0.1593  0.5835  0.1888
    3CHTO   C37 1109   6.807   1.966   2.014  0.1166 -0.4838 -0.4655
    3CHTO   H79 1110   6.888   1.917   2.070 -1.0646 -1.4315  0.4454
    3CHTO   C38 1111   6.687   1.871   2.026 -0.3839 -0.2691 -0.4337
    3CHTO   H80 1112   6.599   1.921   1.983 -0.2194 -0.2625 -0.7674
    3CHTO   O31 1113   6.671   1.840   2.168 -0.1103 -0.1877 -0.3442
    3CHTO   H68 1114   6.628   1.913   2.210 -0.2631  0.5886 -1.8201
    3CHTO   C39 1115   6.712   1.725   1.962 -0.2494  0.3663  0.5233
    3CHTO   H81 1116   6.771   1.660   2.026 -0.1981 -1.4721 -1.3464
    3CHTO    N7 1117   6.588   1.644   1.950  0.4610 -0.1504 -0.0364
    3CHTO   H73 1118   6.556   1.602   1.855 -0.3562 -2.7727  1.3399
    3CHTO   H74 1119   6.581   1.562   2.020 -1.7470 -0.0487 -0.0889
    3CHTO   C40 1120   6.774   1.740   1.821  0.4928  0.6705  0.5821
    3CHTO   H82 1121   6.693   1.749   1.749 -0.8709 -1.4385  1.7909
    3CHTO   O26 1122   6.870   1.843   1.808 -0.0532 -0.3883 -0.2317
    3CHTO   C41 1123   6.845   1.974   1.861 -0.5117 -0.9775 -0.3702
    3CHTO   H83 1124   6.764   2.031   1.812  1.3628  2.6652  0.5868
    3CHTO   C52 1125   6.971   2.059   1.838  0.3284  0.2679 -0.0325
    3CHTO   O35 1126   6.948   2.196   1.865  0.0680  0.2769  0.3796
    3CHTO   H71 1127   6.876   2.213   1.807 -0.7218  1.6787  1.7480
    3CHTO   O28 1128   6.858   1.625   1.791 -0.3322 -0.5065  0.0472
    3CHTO   C42 1129   6.876   1.570   1.652  0.3824  0.2506  0.0883
    3CHTO   H84 1130   6.960   1.501   1.665  1.1851  1.2025 -0.0355
    3CHTO   C44 1131   6.927   1.671   1.546  1.0106 -0.7946  0.3865
    3CHTO   H86 1132   6.852   1.748   1.532  1.4405 -0.5934 -0.8274
    3CHTO   O32 1133   7.042   1.746   1.597 -0.3920 -0.4198  0.2828
    3CHTO   H69 1134   7.111   1.741   1.533 -0.2651 -0.1792  0.4005
    3CHTO   C48 1135   6.959   1.590   1.408 -0.5609 -0.5868  0.4995
    3CHTO   H90 1136   7.041   1.518   1.413  0.5961  0.4664 -2.1661
    3CHTO    N9 1137   6.986   1.684   1.293 -0.4352 -0.3568  0.7329
    3CHTO   H77 1138   6.936   1.778   1.309  1.5793  0.5653  1.8116
    3CHTO   H78 1139   7.091   1.711   1.294 -0.1564 -1.2025 -1.9900
    3CHTO   C51 1140   6.833   1.500   1.373  0.2647  0.5241  0.2097
    3CHTO   H93 1141   6.748   1.557   1.335  1.3922  2.0895 -0.0092
    3CHTO   O30 1142   6.793   1.424   1.491 -0.4361 -0.2008 -0.6696
    3CHTO   C46 1143   6.758   1.486   1.604  0.1257  0.4614 -0.2680
    3CHTO   H88 1144   6.674   1.556   1.605 -0.5907 -0.4086  0.8294
    3CHTO   C53 1145   6.721   1.378   1.700 -0.0923 -0.0074 -0.1013
    3CHTO   O72 1146   6.601   1.313   1.650  0.3595 -0.5068 -0.1177
    3CHTO  H199 1147   6.535   1.330   1.715  2.7095  5.3050  1.0865
    3CHTO   O22 1148   6.873   1.406   1.271 -0.6159  0.7268  0.1469
    3CHTO   C31 1149   6.778   1.350   1.171 -0.3831  0.2058 -0.9384
    3CHTO   H59 1150   6.829   1.262   1.127 -1.0205 -1.1532  0.9766
    3CHTO   C29 1151   6.641   1.300   1.224  0.1306  0.0192  0.3120
    3CHTO   H57 1152   6.592   1.384   1.275  2.7267  0.5459  2.0725
    3CHTO   O21 1153   6.676   1.205   1.325  0.1607 -0.0210  0.1027
    3CHTO   H37 1154   6.705   1.123   1.289  0.2160  0.3974 -0.8108
    3CHTO   C27 1155   6.548   1.246   1.105 -0.0974  0.2588  0.0849
    3CHTO   H55 1156   6.602   1.162   1.058 -0.7255 -0.3523  0.4467
    3CHTO    N5 1157   6.419   1.192   1.154 -0.2932 -0.5676  0.3793
    3CHTO   H43 1158   6.400   1.088   1.131  0.3088 -0.4880 -0.5253
    3CHTO   H44 1159   6.362   1.231   1.237 -0.2614 -1.5678  0.8764
    3CHTO   C25 1160   6.546   1.356   0.993 -0.8167 -0.4720  0.4319
    3CHTO   H53 1161   6.514   1.454   1.031 -2.4625 -0.5233 -0.7703
    3CHTO   O17 1162   6.675   1.387   0.945 -0.3014  0.0602  0.1247
    3CHTO   C32 1163   6.751   1.451   1.049  0.0963 -0.5905 -0.6488
    3CHTO   H60 1164   6.705   1.544   1.086 -0.9752 -1.2230 -0.3618
    3CHTO   C36 1165   6.886   1.488   0.985 -0.7262  0.6769  0.1114
    3CHTO   O25 1166   6.864   1.584   0.883  0.4386 -0.3200 -1.0009
    3CHTO   H40 1167   6.915   1.563   0.808 -1.0760 -0.4691 -2.0206
    3CHTO   O15 1168   6.447   1.316   0.868  0.0700  0.0669 -0.3241
    3CHTO   C19 1169   6.385   1.424   0.787 -0.7523 -0.0792 -1.1132
    3CHTO   H47 1170   6.333   1.374   0.704 -0.1178 -0.1821 -1.4576
    3CHTO   C20 1171   6.271   1.485   0.867 -0.6020 -0.0262 -0.2118
    3CHTO   H48 1172   6.297   1.516   0.969  0.1204  0.6268 -0.5905
    3CHTO   O19 1173   6.171   1.385   0.897  0.4542  0.2515  0.0191
    3CHTO   H35 1174   6.165   1.367   0.989 -0.2883  0.3086 -0.0153
    3CHTO   C21 1175   6.210   1.614   0.790 -0.5918  0.1392 -0.9374
    3CHTO   H49 1176   6.154   1.585   0.702 -1.9296  1.6473 -0.6120
    3CHTO    N4 1177   6.118   1.695   0.873  0.0067  0.1229  0.2308
    3CHTO   H41 1178   6.150   1.741   0.966  0.6253 -1.0360  0.6088
    3CHTO   H42 1179   6.031   1.637   0.896 -0.1982 -0.2367 -1.3732
    3CHTO   C22 1180   6.321   1.706   0.731 -0.2985  0.3732 -0.1581
    3CHTO   H50 1181   6.380   1.752   0.811  0.3165 -1.8390  0.6968
    3CHTO   O14 1182   6.407   1.624   0.642  0.1007  0.0119  0.1614
    3CHTO   C23 1183   6.481   1.533   0.719  0.1579  0.3424  0.5840
    3CHTO   H51 1184   6.529   1.601   0.792  2.3141  0.4814 -0.9176
    3CHTO   C34 1185   6.591   1.466   0.636  0.0616 -0.3536 -1.1208
    3CHTO   O23 1186   6.689   1.562   0.602 -0.4178  0.2649  0.1886
    3CHTO   H38 1187   6.768   1.528   0.638 -0.9193 -0.5771  0.5090
    3CHTO   O16 1188   6.278   1.809   0.636  0.0361  0.0149  0.6280
    3CHTO   C24 1189   6.336   1.964   0.663  0.1559 -0.3119  0.4271
    3CHTO   H52 1190   6.391   1.968   0.758  0.5154 -1.5197  0.2751
    3CHTO   C26 1191   6.213   2.054   0.680  0.5203 -0.6274  0.0410
    3CHTO   H54 1192   6.142   2.029   0.599 -0.5721  0.4207  0.6457
    3CHTO   O20 1193   6.146   2.022   0.807  0.2151 -0.1636  0.6946
    3CHTO   H36 1194   6.206   2.023   0.878  0.6658  1.9231  0.3179
    3CHTO   C30 1195   6.257   2.207   0.678 -0.0554  0.1191 -0.0569
    3CHTO   H58 1196   6.303   2.232   0.775  1.1481  0.0867 -0.6028
    3CHTO    N6 1197   6.141   2.297   0.679  0.2088  0.2990  0.2380
    3CHTO   H45 1198   6.087   2.283   0.771  1.7300  1.3253  1.3034
    3CHTO   H46 1199   6.164   2.402   0.683 -0.8528  0.5019  1.3888
    3CHTO   C33 1200   6.360   2.233   0.564 -0.7084 -0.3228  0.0201
    3CHTO   H61 1201   6.308   2.222   0.467 -1.2065  1.7747  0.0254
    3CHTO   O18 1202   6.470   2.138   0.576  0.0100  0.3070  0.2953
    3CHTO   C28 1203   6.435   2.007   0.550 -0.3637  0.3277  0.3472
    3CHTO   H56 1204   6.388   2.008   0.452  2.0898  2.6808 -0.8763
    3CHTO   C35 1205   6.566   1.916   0.542  0.5794 -0.1541 -0.0855
    3CHTO   O24 1206   6.670   1.924   0.641 -0.2061  0.4130 -0.3139
    3CHTO   H39 1207   6.638   1.911   0.729  0.1704 -0.9340 -0.3611
    3CHTO    O9 1208   6.410   2.366   0.558  0.2234 -0.3398 -0.8688
    3CHTO   C13 1209   6.376   2.450   0.412  0.5409 -0.1252 -0.1063
    3CHTO   H26 1210   6.268   2.439   0.390 -0.2912  1.6075  2.7406
    3CHTO   C11 1211   6.466   2.389   0.300  0.0520 -0.1535  0.2417
    3CHTO   H24 1212   6.416   2.299   0.260  2.0170 -1.2960  0.3170
    3CHTO    O8 1213   6.594   2.353   0.355  0.0818  0.4186 -0.0199
    3CHTO    H3 1214   6.630   2.427   0.400  0.6761  1.3148 -1.9488
    3CHTO    C9 1215   6.460   2.489   0.183  0.2117  0.5128  0.4971
    3CHTO   H22 1216   6.353   2.509   0.164  0.8160  1.5386 -2.0331
    3CHTO    N2 1217   6.510   2.445   0.054 -0.1219 -0.2835 -0.0315
    3CHTO   H10 1218   6.602   2.389   0.059  0.7345  0.9767 -1.2463
    3CHTO   H11 1219   6.437   2.384   0.004 -0.9594 -0.7462  1.7090
    3CHTO    C7 1220   6.515   2.628   0.228 -0.4308  0.2645 -0.2339
    3CHTO   H20 1221   6.445   2.704   0.188 -0.6282 -0.4387 -1.2468
    3CHTO    O4 1222   6.503   2.647   0.372  0.3292 -0.1724 -0.0354
    3CHTO   C14 1223   6.381   2.607   0.434 -0.1396 -0.3998 -0.2358
    3CHTO   H27 1224   6.310   2.669   0.374  1.6118  0.4529 -1.4692
    3CHTO   C18 1225   6.374   2.665   0.581 -0.2563 -0.2538 -0.8569
    3CHTO   O13 1226   6.278   2.606   0.663 -0.7577  0.0302 -0.1226
    3CHTO    H7 1227   6.253   2.667   0.730  0.6917 -1.7154  2.1048
    3CHTO    O2 1228   6.685   2.669   0.179  0.1630  0.2936  0.7165
    3CHTO    C1 1229   6.730   2.812   0.187 -0.1777  0.2207 -0.4337
    3CHTO   H14 1230   6.838   2.809   0.163 -0.2322  1.0850 -0.8261
    3CHTO    C2 1231   6.703   2.891   0.320 -0.1528 -0.4970  0.5608
    3CHTO   H15 1232   6.597   2.872   0.341 -0.1026 -1.4536 -0.0238
    3CHTO    O6 1233   6.776   2.829   0.427 -0.0008  0.4114  0.2661
    3CHTO    H1 1234   6.861   2.863   0.445 -0.2464 -0.2221  2.7883
    3CHTO    C3 1235   6.737   3.047   0.304  0.2247  0.1395  0.4123
    3CHTO   H16 1236   6.846   3.067   0.301  0.1262  0.4950 -1.5868
    3CHTO    N1 1237   6.687   3.130   0.419 -0.4778  0.4350  0.0461
    3CHTO    H8 1238   6.749   3.127   0.507 -0.8837  0.9970  0.3517
    3CHTO    H9 1239   6.642   3.221   0.383 -2.0360 -0.9153 -1.4914
    3CHTO    C4 1240   6.679   3.106   0.169 -0.6145 -0.0109  0.9501
    3CHTO   H17 1241   6.570   3.108   0.179 -0.7341  2.6974 -0.2691
    3CHTO    O1 1242   6.724   3.026   0.065  0.4844  0.0801  0.4482
    3CHTO    C5 1243   6.681   2.890   0.065  0.2886 -0.3555  0.6625
    3CHTO   H18 1244   6.573   2.901   0.079  0.4110  1.0986  0.4744
    3CHTO   C16 1245   6.707   2.830  -0.075  0.0188 -0.6740  0.1222
    3CHTO   O11 1246   6.847   2.849  -0.119  0.4398  0.3757  0.1442
    3CHTO    H5 1247   6.864   2.940  -0.131  1.2815  0.2971  0.6771
    3CHTO    O3 1248   6.726   3.238   0.138  0.1824 -0.0404 -0.0434
    3CHTO    C6 1249   6.621   3.313   0.064 -0.4790  0.0645  0.1451
    3CHTO   H19 1250   6.535   3.252   0.039 -1.2472  1.5030 -0.7676
    3CHTO    C8 1251   6.572   3.426   0.147 -0.0962  0.2275 -0.0211
    3CHTO   H21 1252   6.658   3.488   0.173  0.4500 -1.3985  2.2125
    3CHTO    O7 1253   6.511   3.364   0.262 -0.0975  0.1276 -0.1656
    3CHTO    H2 1254   6.580   3.341   0.321  1.2328  0.5764 -1.5439
    3CHTO   C12 1255   6.467   3.531   0.069  0.1294  0.3502  0.2944
    3CHTO   H25 1256   6.367   3.483   0.065 -0.2970  1.3059 -0.7161
    3CHTO    N3 1257   6.450   3.650   0.158 -0.2394 -0.3333 -0.4342
    3CHTO   H12 1258   6.552   3.677   0.178 -0.1903 -1.6555  1.1051
    3CHTO   H13 1259   6.395   3.627   0.248  1.6590 -0.1060  0.7937
    3CHTO   C15 1260   6.513   3.556  -0.075 -0.3499 -0.2308 -0.0265
    3CHTO   H28 1261   6.588   3.635  -0.081 -1.7348  1.1626  0.8031
    3CHTO   O10 1262   6.403   3.595  -0.172  0.2372 -0.1631  0.8849
    3CHTO    H4 1263   6.336   3.529  -0.173 -0.3254  0.3962  0.8951
    3CHTO    O5 1264   6.576   3.441  -0.141 -0.0069  0.0962  0.2266
    3CHTO   C10 1265   6.677   3.372  -0.065 -0.1794  0.1322 -0.6300
    3CHTO   H23 1266   6.753   3.447  -0.044  1.3597 -1.2215 -1.2407
    3CHTO   C17 1267   6.739   3.263  -0.156  0.9602 -0.2005  0.2948
    3CHTO   O12 1268   6.640   3.158  -0.198  0.4809 -0.7658 -0.7802
    3CHTO    H6 1269   6.688   3.079  -0.215 -0.4090 -1.0732 -1.9172
    4CHTO  H203 1270   6.548   6.596   1.748  1.8559 -1.3889 -0.5140
    4CHTO   O82 1271   6.609   6.613   1.817  0.4258  0.1481  0.4106
    4CHTO  C123 1272   6.696   6.729   1.802 -0.3140  0.8145 -0.6993
    4CHTO  H227 1273   6.757   6.745   1.892  1.0436 -0.6258 -1.3295
    4CHTO   O77 1274   6.789   6.692   1.696  0.5884 -0.1786 -0.0621
    4CHTO  C118 1275   6.901   6.779   1.667  0.1607  0.4747  0.0795
    4CHTO  H222 1276   6.959   6.783   1.760  0.1096 -0.2340  0.1466
    4CHTO  C125 1277   6.981   6.701   1.554  0.5314  0.0067  0.6651
    4CHTO   O84 1278   6.908   6.705   1.425 -0.2131 -0.3061 -0.4840
    4CHTO  H205 1279   6.940   6.780   1.379 -1.0867  0.7601  0.6284
    4CHTO  C114 1280   6.844   6.915   1.624  0.1281  0.3863  0.9029
    4CHTO  H218 1281   6.794   6.904   1.527  0.1007 -0.3231  0.9956
    4CHTO  C116 1282   6.733   6.966   1.724 -0.2426  0.2475 -0.1433
    4CHTO  H220 1283   6.771   7.003   1.821  0.0643 -3.5108  1.2524
    4CHTO   O79 1284   6.662   7.081   1.669  0.2606  0.1383 -0.0776
    4CHTO  H201 1285   6.717   7.155   1.650 -1.7600  1.7575  0.1164
    4CHTO  C120 1286   6.627   6.860   1.763 -0.2914  0.0077  0.8106
    4CHTO  H224 1287   6.570   6.839   1.671  1.1263  1.5035 -0.4381
    4CHTO   N21 1288   6.536   6.904   1.875 -0.5721 -0.0576  0.2254
    4CHTO  H211 1289   6.557   6.891   1.980  0.5726 -0.6589 -0.0748
    4CHTO  H212 1290   6.431   6.889   1.853 -0.7684  1.4489  0.1166
    4CHTO   O75 1291   6.947   7.013   1.608 -0.4169  0.3433 -0.0473
    4CHTO  C112 1292   7.027   7.040   1.447  0.7370 -0.0041  0.8925
    4CHTO  H216 1293   6.954   7.003   1.373  1.7085 -2.3640  1.0702
    4CHTO   O73 1294   7.150   6.967   1.435 -0.1614 -0.4401 -0.9157
    4CHTO  C113 1295   7.214   6.988   1.308 -0.1922  0.3828  0.0961
    4CHTO  H217 1296   7.138   6.958   1.232 -1.8014 -0.1091  1.8480
    4CHTO  C124 1297   7.330   6.886   1.296 -0.3282  0.3479  0.3081
    4CHTO   O83 1298   7.282   6.750   1.293  0.0079 -0.2471 -0.2564
    4CHTO  H204 1299   7.294   6.728   1.384  2.4587  1.0737 -0.2077
    4CHTO  C109 1300   7.259   7.134   1.296 -0.0358  0.2325 -0.5228
    4CHTO  H213 1301   7.312   7.155   1.390 -0.0863  0.2351 -0.4950
    4CHTO  C110 1302   7.132   7.219   1.287 -0.0029 -0.8829 -0.1618
    4CHTO  H214 1303   7.069   7.189   1.202 -1.0231  0.7481  0.0019
    4CHTO   O78 1304   7.168   7.358   1.276 -0.5267 -0.0740  0.0838
    4CHTO  H200 1305   7.111   7.408   1.221  0.4370 -0.9515 -1.7700
    4CHTO  C111 1306   7.050   7.191   1.419 -0.1894  0.6577 -0.1332
    4CHTO  H215 1307   7.108   7.224   1.507  0.1250 -0.7734  0.2108
    4CHTO   N19 1308   6.915   7.252   1.431 -0.4213 -0.4337  0.1033
    4CHTO  H207 1309   6.843   7.208   1.364 -0.4422 -2.0198  1.1499
    4CHTO  H208 1310   6.884   7.235   1.534  0.4175  1.5551  0.7184
    4CHTO   O74 1311   7.353   7.161   1.185 -0.3942  0.1887  0.4923
    4CHTO  C115 1312   7.486   7.241   1.223  0.2394  0.7551  0.3354
    4CHTO  H219 1313   7.470   7.306   1.309 -0.7174  0.8445  0.0932
    4CHTO   O76 1314   7.595   7.145   1.271  0.2343  0.0025  0.1168
    4CHTO  C122 1315   7.647   7.071   1.161 -0.1644 -0.3523 -0.3433
    4CHTO  H226 1316   7.568   7.006   1.123 -1.7856  2.1172 -1.2979
    4CHTO  C126 1317   7.749   6.968   1.223 -0.5768 -0.2584 -0.3451
    4CHTO   O85 1318   7.672   6.882   1.308 -0.0564 -0.5724 -0.0521
    4CHTO  H206 1319   7.718   6.873   1.389  0.5186 -0.4236 -0.3642
    4CHTO  C121 1320   7.710   7.162   1.044 -0.4147 -0.3111 -0.1348
    4CHTO  H225 1321   7.817   7.158   1.072 -0.3324  0.3898 -0.3380
    4CHTO   O81 1322   7.676   7.091   0.918 -0.1419 -0.2965  0.7591
    4CHTO  H202 1323   7.590   7.122   0.896  0.0325 -0.9178 -0.8899
    4CHTO  C119 1324   7.660   7.307   1.047 -0.3605 -0.0419  0.8020
    4CHTO  H223 1325   7.731   7.356   1.114  0.9748 -0.6579 -0.1239
    4CHTO  C117 1326   7.515   7.329   1.089 -0.0752  0.2714  0.1507
    4CHTO  H221 1327   7.445   7.295   1.012  0.8898  0.3190 -0.7542
    4CHTO   N20 1328   7.479   7.473   1.107 -0.2955  0.2286 -1.1402
    4CHTO  H209 1329   7.444   7.494   1.207  0.9733 -0.8397 -0.4626
    4CHTO  H210 1330   7.551   7.543   1.066 -0.2117 -0.0045 -1.3866
    4CHTO   O80 1331   7.696   7.376   0.909 -0.0959  0.1390  0.1709
    4CHTO  C103 1332   7.787   7.519   0.906  0.1667  0.4154  0.6932
    4CHTO  H190 1333   7.733   7.595   0.963 -1.0273  0.8807 -1.0315
    4CHTO  C101 1334   7.942   7.514   0.941  0.1309  0.7315 -0.0634
    4CHTO  H188 1335   7.993   7.424   0.906 -2.0841 -0.7881  0.5595
    4CHTO   O68 1336   7.943   7.517   1.104  0.2840 -0.8615  0.4843
    4CHTO  H168 1337   7.889   7.449   1.139  0.5730 -0.4429  1.7556
    4CHTO   C99 1338   8.015   7.642   0.889  0.1738 -0.2110 -0.2212
    4CHTO  H186 1339   7.974   7.734   0.936 -0.3067 -0.8031  0.5199
    4CHTO   N17 1340   8.172   7.631   0.915  0.4028  0.0033  0.7607
    4CHTO  H174 1341   8.197   7.626   1.020 -2.5344  0.3872  1.5253
    4CHTO  H175 1342   8.213   7.545   0.865 -1.1510 -0.7156  0.6940
    4CHTO   C97 1343   7.988   7.662   0.729  0.4532 -0.3781 -0.6139
    4CHTO  H184 1344   8.027   7.578   0.669  0.0723 -1.5233  0.6924
    4CHTO   O64 1345   7.846   7.673   0.711  0.4617  0.8356 -0.1775
    4CHTO  C104 1346   7.770   7.555   0.759 -0.2681  0.3553 -0.6874
    4CHTO  H191 1347   7.792   7.467   0.700  0.9787  0.0831  0.1751
    4CHTO  C108 1348   7.625   7.583   0.734 -0.3332 -0.3184  0.1849
    4CHTO   O71 1349   7.603   7.589   0.584  0.4627 -0.0395 -0.5391
    4CHTO  H171 1350   7.511   7.601   0.570 -0.4909 -2.1035  3.3009
    4CHTO   O62 1351   8.037   7.788   0.683 -0.1076  0.0607  0.0516
    4CHTO   C91 1352   8.088   7.795   0.547  0.3272 -0.5077 -0.1752
    4CHTO  H178 1353   8.154   7.708   0.542  0.8255 -0.0762 -1.3957
    4CHTO   C92 1354   8.173   7.926   0.539 -0.2265 -0.4488  0.0137
    4CHTO  H179 1355   8.109   8.008   0.573 -0.2013 -0.7636  0.8181
    4CHTO   O66 1356   8.285   7.909   0.625 -0.0061 -0.2838 -0.6039
    4CHTO  H166 1357   8.359   7.874   0.580 -0.5425  0.0483 -1.7755
    4CHTO   C93 1358   8.219   7.953   0.387  0.6990  0.0544  0.1579
    4CHTO  H180 1359   8.279   7.871   0.344  1.3350  1.0812 -0.9762
    4CHTO   N16 1360   8.303   8.080   0.378  0.3432 -0.6590  0.7485
    4CHTO  H172 1361   8.405   8.047   0.368 -0.3340 -2.6562  0.3653
    4CHTO  H173 1362   8.299   8.139   0.468 -0.3727 -0.1248  0.3739
    4CHTO   C94 1363   8.090   7.968   0.296  0.8423  0.0746 -0.3762
    4CHTO  H181 1364   8.024   8.044   0.338  0.7923 -0.6590  0.9004
    4CHTO   O61 1365   8.016   7.847   0.297 -0.0102  0.1620 -0.1330
    4CHTO   C95 1366   7.978   7.789   0.426 -0.4641 -0.1859  0.5736
    4CHTO  H182 1367   7.890   7.842   0.461 -0.2849  0.3141  0.2686
    4CHTO  C106 1368   7.930   7.641   0.399 -0.8150  0.3975  0.3080
    4CHTO   O69 1369   7.821   7.654   0.311  0.1874 -0.4655 -0.3045
    4CHTO  H169 1370   7.748   7.651   0.370 -0.5767 -3.6510 -1.3000
    4CHTO   O63 1371   8.120   8.000   0.146  0.2637  0.5532 -0.6283
    4CHTO   C96 1372   7.987   8.061   0.077  0.0257  0.5533  0.0179
    4CHTO  H183 1373   7.908   8.073   0.151 -2.7686 -0.0958 -2.7906
    4CHTO   C98 1374   7.929   7.977  -0.037 -0.5060 -0.0225  0.6067
    4CHTO  H185 1375   8.006   7.960  -0.112 -2.1951 -1.2470 -0.8839
    4CHTO   O67 1376   7.899   7.851   0.020  0.0586  0.1778  0.1986
    4CHTO  H167 1377   7.899   7.779  -0.039  0.0434  0.3849 -0.0555
    4CHTO  C102 1378   7.797   8.043  -0.102  0.1650  0.2332 -0.2247
    4CHTO  H189 1379   7.719   8.026  -0.026  0.9210  0.5134  0.6234
    4CHTO   N18 1380   7.740   7.990  -0.231  0.6732  0.4438  0.1699
    4CHTO  H176 1381   7.639   7.957  -0.211  0.9008 -0.8733 -0.7844
    4CHTO  H177 1382   7.733   8.073  -0.299 -2.0741 -0.6485 -0.9777
    4CHTO  C105 1383   7.802   8.197  -0.093  0.1557  0.3460 -0.3611
    4CHTO  H192 1384   7.761   8.246  -0.182 -1.0650  0.8288  0.4666
    4CHTO   O65 1385   7.940   8.249  -0.076  0.3007  0.3356 -0.0682
    4CHTO  C100 1386   8.015   8.206   0.030  0.0178 -0.0668 -0.2383
    4CHTO  H187 1387   8.120   8.201  -0.004 -0.4556  1.4742 -1.9758
    4CHTO  C107 1388   8.003   8.314   0.149 -0.2342  0.1309  0.1527
    4CHTO   O70 1389   8.094   8.302   0.252 -0.2477  0.2558 -0.1136
    4CHTO  H170 1390   8.046   8.307   0.332  1.3073  0.5312  0.8094
    4CHTO   O57 1391   7.703   8.224   0.041  0.2182  0.0434  0.2342
    4CHTO   C85 1392   7.595   8.314   0.031 -0.1219  0.4055  0.2563
    4CHTO  H157 1393   7.608   8.360  -0.069  2.7702  0.5532  0.6477
    4CHTO   C83 1394   7.629   8.435   0.130  0.1228  0.0847 -0.1789
    4CHTO  H155 1395   7.732   8.462   0.106 -0.1100 -0.8329 -2.3295
    4CHTO   O56 1396   7.633   8.386   0.270 -0.2619 -0.1353  0.7211
    4CHTO  H135 1397   7.574   8.426   0.331 -1.7973 -0.4029 -0.5631
    4CHTO   C81 1398   7.537   8.548   0.099 -0.4904 -0.2286  0.5469
    4CHTO  H153 1399   7.548   8.575  -0.006  0.0373  1.7737  1.1056
    4CHTO   N14 1400   7.575   8.670   0.167  0.4576 -0.1263  0.3546
    4CHTO  H141 1401   7.504   8.746   0.141 -0.7357  0.4520  4.9245
    4CHTO  H142 1402   7.578   8.661   0.273 -2.4649 -0.2014  0.4773
    4CHTO   C79 1403   7.390   8.496   0.119  0.8250  0.6391  0.1867
    4CHTO  H151 1404   7.325   8.575   0.079 -0.2023 -0.6448 -0.7087
    4CHTO   O52 1405   7.360   8.378   0.031  0.6262  0.0869  0.4131
    4CHTO   C86 1406   7.452   8.266   0.056 -0.0685  0.0131 -0.0936
    4CHTO  H158 1407   7.431   8.232   0.159  0.3392 -1.1991 -0.4025
    4CHTO   C90 1408   7.428   8.142  -0.040  0.2585  0.1955  0.7811
    4CHTO   O60 1409   7.293   8.104  -0.040 -0.6952  0.3553  0.4535
    4CHTO  H138 1410   7.236   8.178  -0.048  1.0103  1.6465 -0.0389
    4CHTO   O50 1411   7.356   8.467   0.257  0.0867 -0.3166  0.4931
    4CHTO   C73 1412   7.237   8.475   0.336  0.0513  0.3569 -0.3880
    4CHTO  H145 1413   7.183   8.568   0.315  0.1090  0.7401  1.1396
    4CHTO   C74 1414   7.280   8.469   0.482 -0.2506 -0.0610  0.4121
    4CHTO  H146 1415   7.347   8.554   0.499 -0.3182 -0.2627  1.7497
    4CHTO   O54 1416   7.162   8.492   0.554 -0.4710 -0.2483  0.5118
    4CHTO  H133 1417   7.181   8.510   0.645  2.1046  2.9844 -0.5735
    4CHTO   C75 1418   7.353   8.326   0.515 -0.3522 -0.7950  0.1362
    4CHTO  H147 1419   7.447   8.321   0.458  1.0206  3.8261  1.7692
    4CHTO   N13 1420   7.390   8.294   0.651 -0.0398  0.4315 -0.4058
    4CHTO  H139 1421   7.345   8.370   0.713 -0.1254 -0.6071  0.8194
    4CHTO  H140 1422   7.497   8.291   0.666 -0.3525 -3.5491  1.5587
    4CHTO   C76 1423   7.257   8.210   0.465  0.3560  0.8446  0.6300
    4CHTO  H148 1424   7.162   8.219   0.517  0.3838 -0.6555  0.9533
    4CHTO   O49 1425   7.219   8.237   0.324  0.1971 -0.4383 -0.2473
    4CHTO   C77 1426   7.143   8.353   0.308  0.4503 -0.4732 -0.2970
    4CHTO  H149 1427   7.057   8.351   0.375  1.5046  3.0008  1.2771
    4CHTO   C88 1428   7.072   8.357   0.170  0.9140  0.3967  0.5010
    4CHTO   O58 1429   6.964   8.263   0.162  0.5030  0.4722  0.0004
    4CHTO  H136 1430   6.949   8.214   0.241  1.9006  0.2142  0.1198
    4CHTO   O51 1431   7.316   8.053   0.480 -0.3317 -0.3566  0.5609
    4CHTO   C78 1432   7.361   7.984   0.341  0.0699  0.6116  0.0058
    4CHTO  H150 1433   7.380   8.052   0.255  0.0775 -1.2284 -1.4632
    4CHTO   C80 1434   7.248   7.880   0.304  0.6881 -0.8460  0.4075
    4CHTO  H152 1435   7.209   7.829   0.394 -1.6269  0.8669  0.4156
    4CHTO   O55 1436   7.139   7.960   0.258  0.1190  1.3338 -0.3122
    4CHTO  H134 1437   7.064   7.954   0.314 -0.2578 -0.1417 -0.9583
    4CHTO   C84 1438   7.286   7.770   0.191  0.3926 -0.1677 -0.2145
    4CHTO  H156 1439   7.297   7.833   0.102  1.3010 -2.2882 -1.6552
    4CHTO   N15 1440   7.178   7.673   0.171  0.0993 -0.5944  0.2746
    4CHTO  H143 1441   7.199   7.610   0.087 -1.1131 -0.8679  0.1608
    4CHTO  H144 1442   7.086   7.724   0.152  1.9428  2.0702 -1.8061
    4CHTO   C87 1443   7.421   7.717   0.215  0.1419 -0.4965 -0.7072
    4CHTO  H159 1444   7.427   7.643   0.295  3.5524 -1.4375 -1.7512
    4CHTO   O53 1445   7.517   7.826   0.241  0.0100 -0.6443  0.5564
    4CHTO   C82 1446   7.489   7.901   0.358 -0.7970  0.8314 -0.1518
    4CHTO  H154 1447   7.466   7.835   0.441  0.2035 -0.3182 -0.7691
    4CHTO   C89 1448   7.615   7.980   0.405  0.1418 -0.3140 -0.2344
    4CHTO   O59 1449   7.654   8.068   0.295  0.6123  0.0252 -0.2200
    4CHTO  H137 1450   7.719   8.129   0.324  0.4341  0.0354  0.1561
    4CHTO   O45 1451   7.482   7.649   0.074 -0.1655  0.5937 -0.1198
    4CHTO   C67 1452   7.615   7.582   0.068  1.0350 -0.1628  0.5069
    4CHTO  H124 1453   7.702   7.645   0.089 -0.1757  1.3491  1.1018
    4CHTO   C65 1454   7.631   7.452   0.152  0.2956  0.4946  0.7292
    4CHTO  H122 1455   7.596   7.482   0.251 -3.4051  1.8978 -0.8918
    4CHTO   O44 1456   7.765   7.395   0.148  0.4321  0.1647  0.0583
    4CHTO  H102 1457   7.792   7.368   0.234  0.8617  1.6780  0.4089
    4CHTO   C63 1458   7.526   7.341   0.107 -0.6058 -0.2259 -0.0421
    4CHTO  H120 1459   7.425   7.382   0.112 -1.9644 -3.7320  4.6119
    4CHTO   N11 1460   7.508   7.222   0.199 -0.5147 -0.4369  0.1164
    4CHTO  H108 1461   7.416   7.235   0.252 -0.8442 -2.1688  0.0023
    4CHTO  H109 1462   7.497   7.133   0.141  2.5738 -0.4528 -0.5228
    4CHTO   C61 1463   7.544   7.298  -0.043  0.2802 -0.0414 -0.1992
    4CHTO  H118 1464   7.445   7.255  -0.064  0.3613 -0.9577  1.2275
    4CHTO   O40 1465   7.564   7.412  -0.132 -0.2891 -0.1990 -0.5158
    4CHTO   C68 1466   7.628   7.540  -0.085  0.0635 -0.2433  0.2240
    4CHTO  H125 1467   7.572   7.622  -0.135  1.6737  1.7170  1.5380
    4CHTO   C72 1468   7.766   7.535  -0.147 -0.0652 -0.1024 -0.2440
    4CHTO   O48 1469   7.760   7.526  -0.292  0.3510  0.2834 -0.3660
    4CHTO  H105 1470   7.802   7.445  -0.313 -1.6947 -0.6280 -1.0457
    4CHTO   O38 1471   7.654   7.204  -0.068 -0.1265  0.3877 -0.8278
    4CHTO   C55 1472   7.633   7.088  -0.161 -0.0267  0.1811 -0.1071
    4CHTO  H112 1473   7.535   7.112  -0.205  0.5695 -0.3837 -1.8183
    4CHTO   C56 1474   7.632   6.950  -0.086  0.5831 -0.4534 -0.2835
    4CHTO  H113 1475   7.729   6.944  -0.033 -0.3289 -1.2959  1.3284
    4CHTO   O42 1476   7.526   6.943   0.009 -0.4610 -0.4499 -0.0623
    4CHTO  H100 1477   7.551   6.930   0.098 -3.2351 -0.2370  0.7984
    4CHTO   C57 1478   7.619   6.832  -0.190 -0.7235  0.5431  0.6005
    4CHTO  H114 1479   7.517   6.841  -0.229 -0.3015  1.9965 -0.2079
    4CHTO   N10 1480   7.641   6.698  -0.126 -0.4928  0.3496  0.1646
    4CHTO  H106 1481   7.541   6.671  -0.095 -0.0109 -0.3073  1.1840
    4CHTO  H107 1482   7.701   6.699  -0.036 -1.6633  0.2004  0.9617
    4CHTO   C58 1483   7.719   6.857  -0.309 -0.4552  0.1526 -0.6841
    4CHTO  H115 1484   7.825   6.844  -0.280 -0.6451  0.1676  0.0171
    4CHTO   O37 1485   7.694   6.988  -0.365  0.2703 -0.2138 -0.1323
    4CHTO   C59 1486   7.734   7.094  -0.283 -0.4400 -0.1883 -0.0954
    4CHTO  H116 1487   7.837   7.077  -0.248 -0.9543  2.3203  2.8518
    4CHTO   C70 1488   7.718   7.223  -0.365 -0.4944 -0.5971  0.3256
    4CHTO   O46 1489   7.809   7.219  -0.474  0.1057 -0.4965 -0.1386
    4CHTO  H103 1490   7.802   7.294  -0.529  0.2751 -0.2482  0.1709
    4CHTO   O39 1491   7.694   6.733  -0.432 -0.7774 -0.3542  0.1955
    4CHTO   C60 1492   7.588   6.763  -0.531 -0.1373  0.3051  0.5591
    4CHTO  H117 1493   7.504   6.810  -0.481 -2.1389 -0.0622 -2.2881
    4CHTO   C62 1494   7.638   6.853  -0.643  0.3865  0.5688 -0.4578
    4CHTO  H119 1495   7.653   6.950  -0.591 -0.9819  1.7022 -2.1261
    4CHTO   O43 1496   7.767   6.805  -0.698 -0.1715 -0.2511  0.3560
    4CHTO  H101 1497   7.745   6.777  -0.785 -2.8025  1.0575  0.5319
    4CHTO   C66 1498   7.518   6.873  -0.755 -0.3535 -0.3881  0.0654
    4CHTO  H123 1499   7.431   6.918  -0.706 -0.3030 -0.8729  0.6067
    4CHTO   N12 1500   7.555   6.971  -0.852 -0.0837 -0.2262 -0.3623
    4CHTO  H110 1501   7.527   7.070  -0.821 -1.6922 -0.2806 -1.5741
    4CHTO  H111 1502   7.656   6.963  -0.890  0.3579 -2.2048  1.1239
    4CHTO   C69 1503   7.475   6.735  -0.810  0.3375  0.1361 -0.7037
    4CHTO  H126 1504   7.572   6.690  -0.841 -0.2058 -1.3941 -0.2026
    4CHTO   O41 1505   7.422   6.648  -0.678 -0.2672 -0.8606  0.6031
    4CHTO   C64 1506   7.535   6.628  -0.587 -0.0572  0.4526 -0.2362
    4CHTO  H121 1507   7.608   6.572  -0.649 -0.8559  1.1906 -1.8963
    4CHTO   C71 1508   7.497   6.533  -0.474  0.8750 -0.3810 -0.3008
    4CHTO   O47 1509   7.602   6.449  -0.432 -0.2578 -0.2119 -0.3345
    4CHTO  H104 1510   7.637   6.380  -0.486  0.8128  0.2313 -0.2339
    4CHTO   O34 1511   7.365   6.743  -0.926  0.1230  0.8969  0.4207
    4CHTO   C49 1512   7.391   6.646  -1.050 -0.6033  0.1946  0.7539
    4CHTO   H91 1513   7.489   6.671  -1.090 -1.0436 -0.1507 -0.5594
    4CHTO   C47 1514   7.288   6.672  -1.160 -0.4992  0.9239  0.6186
    4CHTO   H89 1515   7.328   6.630  -1.254 -1.0444  1.7726  0.0032
    4CHTO   O33 1516   7.271   6.815  -1.184 -0.4202 -0.0414  0.0558
    4CHTO   H70 1517   7.347   6.861  -1.214  0.6474 -0.6461  1.7472
    4CHTO   C45 1518   7.146   6.607  -1.118  0.5189  0.2190 -0.7517
    4CHTO   H87 1519   7.112   6.655  -1.025  0.6210 -0.3332 -0.4194
    4CHTO    N8 1520   7.041   6.627  -1.223  1.2596 -0.4029 -0.3926
    4CHTO   H75 1521   7.062   6.684  -1.312 -2.2299  2.1541  0.3043
    4CHTO   H76 1522   6.986   6.537  -1.243 -1.7625  0.8445  1.8999
    4CHTO   C43 1523   7.166   6.456  -1.072  0.1235  0.5728 -0.2579
    4CHTO   H85 1524   7.076   6.425  -1.019  0.9209 -0.1991  0.6705
    4CHTO   O29 1525   7.280   6.431  -0.992 -1.0065 -0.3469  0.5078
    4CHTO   C50 1526   7.398   6.495  -1.017 -0.6283  0.1165  0.5421
    4CHTO   H92 1527   7.467   6.495  -0.930  0.4968 -1.2005 -0.3390
    4CHTO   C54 1528   7.486   6.418  -1.122 -0.2627 -0.0087  0.1087
    4CHTO   O36 1529   7.530   6.296  -1.068 -0.4609 -0.0469 -0.1674
    4CHTO   H72 1530   7.622   6.284  -1.080 -0.1554  0.2072  1.8055
    4CHTO   O27 1531   7.177   6.370  -1.191  0.7642  0.2516 -0.3530
    4CHTO   C37 1532   7.153   6.230  -1.233  0.5739  0.8586 -0.1632
    4CHTO   H79 1533   7.132   6.226  -1.341  1.5738  1.1661 -0.3739
    4CHTO   C38 1534   7.283   6.147  -1.206  0.2873  0.4881  1.1266
    4CHTO   H80 1535   7.316   6.180  -1.107 -0.5310  4.6328  0.1303
    4CHTO   O31 1536   7.369   6.194  -1.317 -0.4574 -0.4638 -0.2857
    4CHTO   H68 1537   7.405   6.120  -1.363 -2.3156 -1.4332 -0.2235
    4CHTO   C39 1538   7.271   5.991  -1.214 -0.3009  0.5588  0.1063
    4CHTO   H81 1539   7.265   5.967  -1.320 -0.2402  2.9737 -0.4752
    4CHTO    N7 1540   7.400   5.925  -1.167  0.4000 -0.0532 -1.1829
    4CHTO   H73 1541   7.495   5.950  -1.212  1.6000 -3.0374 -0.4375
    4CHTO   H74 1542   7.413   5.950  -1.063 -2.4738 -1.3561 -0.4618
    4CHTO   C40 1543   7.140   5.943  -1.140 -0.2507  0.8119  0.2931
    4CHTO   H82 1544   7.151   5.944  -1.032 -1.9572 -0.3979  0.4979
    4CHTO   O26 1545   7.023   6.015  -1.182 -0.4271  0.3034 -0.6088
    4CHTO   C41 1546   7.030   6.162  -1.159 -0.2192 -0.6538 -0.1340
    4CHTO   H83 1547   7.038   6.172  -1.050  1.9627 -1.0400 -0.2246
    4CHTO   C52 1548   6.905   6.237  -1.213 -0.3950 -0.3424  0.0073
    4CHTO   O35 1549   6.779   6.225  -1.119 -0.0205  0.3256  0.6179
    4CHTO   H71 1550   6.766   6.140  -1.082 -1.6162  0.1593 -0.3206
    4CHTO   O28 1551   7.103   5.809  -1.183  0.2682 -0.4815 -0.4557
    4CHTO   C42 1552   7.027   5.717  -1.096  0.1612  0.1455 -0.0526
    4CHTO   H84 1553   7.006   5.635  -1.166  0.3748  0.9649 -1.0854
    4CHTO   C44 1554   6.891   5.770  -1.040 -0.0851  0.4231 -0.5391
    4CHTO   H86 1555   6.909   5.864  -0.986 -2.6150 -0.2316  1.5738
    4CHTO   O32 1556   6.820   5.789  -1.159  0.8498 -0.4043  0.1030
    4CHTO   H69 1557   6.844   5.871  -1.197 -1.0760 -0.3828 -1.1390
    4CHTO   C48 1558   6.822   5.667  -0.938  1.4409 -0.2729 -0.0509
    4CHTO   H90 1559   6.799   5.582  -1.002  3.4622 -0.5086 -0.4816
    4CHTO    N9 1560   6.692   5.717  -0.889 -0.0226  0.2215 -0.6671
    4CHTO   H77 1561   6.711   5.715  -0.782  0.6837 -3.4002 -0.8000
    4CHTO   H78 1562   6.605   5.659  -0.914 -0.2333  0.4045 -0.3578
    4CHTO   C51 1563   6.931   5.623  -0.839  0.2541  0.3599 -0.3311
    4CHTO   H93 1564   6.954   5.715  -0.785 -0.5220 -0.0912  0.7989
    4CHTO   O30 1565   7.043   5.565  -0.897  0.7524  0.0913  0.0853
    4CHTO   C46 1566   7.122   5.662  -0.982  0.0513 -0.5765 -0.0277
    4CHTO   H88 1567   7.149   5.753  -0.927  0.3667 -1.0944  0.6889
    4CHTO   C53 1568   7.246   5.592  -1.041  0.2142 -0.1753  0.5607
    4CHTO   O72 1569   7.320   5.555  -0.923  0.4276  0.3954  0.0159
    4CHTO  H199 1570   7.376   5.481  -0.938  0.6739  0.4391  0.7015
    4CHTO   O22 1571   6.881   5.517  -0.758 -0.4731 -0.1747 -0.4074
    4CHTO   C31 1572   6.875   5.513  -0.603 -0.4264  0.4588  0.0092
    4CHTO   H59 1573   6.899   5.408  -0.576 -1.1820  0.3947  0.4493
    4CHTO   C29 1574   6.987   5.607  -0.552  0.1530 -0.2007 -0.6363
    4CHTO   H57 1575   6.966   5.704  -0.600  0.3497 -0.5597 -1.4665
    4CHTO   O21 1576   7.110   5.549  -0.591 -0.6288  0.4139  0.0273
    4CHTO   H37 1577   7.185   5.603  -0.575  0.0788 -0.8851  1.2427
    4CHTO   C27 1578   6.982   5.625  -0.395  0.5857  0.2980 -0.2674
    4CHTO   H55 1579   7.015   5.530  -0.352  1.6981 -0.1154 -2.0167
    4CHTO    N5 1580   7.075   5.735  -0.361 -0.2075 -0.2691 -0.2896
    4CHTO   H43 1581   7.048   5.830  -0.405  0.2073  0.0542  0.1625
    4CHTO   H44 1582   7.177   5.704  -0.375  1.0330  2.8934  1.4014
    4CHTO   C25 1583   6.829   5.654  -0.347 -0.3105  0.2733  0.0083
    4CHTO   H53 1584   6.789   5.742  -0.399 -2.1094 -0.7932 -0.4725
    4CHTO   O17 1585   6.747   5.538  -0.392  0.1203 -0.6604 -0.2840
    4CHTO   C32 1586   6.739   5.540  -0.535 -0.4947  0.2552 -0.4409
    4CHTO   H60 1587   6.703   5.639  -0.562 -0.9101  0.0519 -0.6327
    4CHTO   C36 1588   6.641   5.432  -0.590 -0.2081  0.1511 -0.4559
    4CHTO   O25 1589   6.505   5.464  -0.547 -0.1049 -0.0273 -0.1540
    4CHTO   H40 1590   6.462   5.398  -0.495 -0.6718  2.0252  2.0178
    4CHTO   O15 1591   6.821   5.676  -0.197  0.5240 -0.0211  0.5230
    4CHTO   C19 1592   6.843   5.655  -0.055  0.2155  0.5447  0.2318
    4CHTO   H47 1593   6.755   5.696  -0.003 -0.1047  1.9697 -1.3854
    4CHTO   C20 1594   6.866   5.496  -0.040 -0.1631  0.6037 -1.1594
    4CHTO   H48 1595   6.944   5.459  -0.108  0.1949 -0.5852 -0.1189
    4CHTO   O19 1596   6.731   5.436  -0.066 -0.9965  0.4247 -0.0609
    4CHTO   H35 1597   6.691   5.387   0.004 -1.9096  0.9643 -0.1946
    4CHTO   C21 1598   6.924   5.467   0.109 -0.7139 -0.2344 -0.0010
    4CHTO   H49 1599   6.856   5.508   0.183  1.0738  3.2038 -0.1362
    4CHTO    N4 1600   6.939   5.319   0.127  0.0373  0.1785  0.4411
    4CHTO   H41 1601   6.901   5.261   0.044 -0.2046  0.7443  0.1490
    4CHTO   H42 1602   7.043   5.292   0.140 -0.7041 -2.4520  1.1205
    4CHTO   C22 1603   7.049   5.554   0.129 -0.1575  0.4187 -0.1192
    4CHTO   H50 1604   7.114   5.533   0.044  0.1966  1.8833 -0.2208
    4CHTO   O14 1605   7.013   5.695   0.125  0.0776 -0.2947 -0.1352
    4CHTO   C23 1606   6.967   5.741  -0.012 -0.8863  0.1610  0.0471
    4CHTO   H51 1607   7.049   5.738  -0.085 -0.9528 -0.8046  0.0076
    4CHTO   C34 1608   6.930   5.887  -0.008  0.4747  0.3532 -0.0708
    4CHTO   O23 1609   7.047   5.963  -0.005 -0.1369  0.1464  0.3633
    4CHTO   H38 1610   7.055   6.023   0.067  1.3052  1.1888 -0.6270
    4CHTO   O16 1611   7.116   5.519   0.253 -0.3146 -0.5649  0.1197
    4CHTO   C24 1612   7.190   5.611   0.330  0.5423 -0.3167  0.2240
    4CHTO   H52 1613   7.142   5.709   0.338  2.2931  0.5492  0.3649
    4CHTO   C26 1614   7.328   5.636   0.265 -0.2227  0.2387 -0.1976
    4CHTO   H54 1615   7.373   5.537   0.241 -1.2866 -0.3673  0.2577
    4CHTO   O20 1616   7.306   5.710   0.138 -0.5473 -0.1702  0.0012
    4CHTO   H36 1617   7.385   5.703   0.088 -1.6822 -1.0538 -1.7262
    4CHTO   C30 1618   7.415   5.717   0.366 -0.2982 -0.1566 -0.0705
    4CHTO   H58 1619   7.375   5.819   0.367 -0.4922 -0.2324  0.3189
    4CHTO    N6 1620   7.549   5.738   0.307 -0.1944  0.1080  0.3080
    4CHTO   H45 1621   7.571   5.712   0.205  1.4794  0.7261  0.4911
    4CHTO   H46 1622   7.579   5.840   0.325  0.6562 -0.5247  2.7373
    4CHTO   C33 1623   7.414   5.659   0.506 -0.9233 -0.3538 -0.5783
    4CHTO   H61 1624   7.467   5.562   0.504  1.3815  0.7518  2.8781
    4CHTO   O18 1625   7.276   5.637   0.550  0.3922 -0.1518  0.4124
    4CHTO   C28 1626   7.196   5.549   0.466 -0.0191 -0.3745  0.4107
    4CHTO   H56 1627   7.238   5.448   0.468  4.3519  1.3780  2.2488
    4CHTO   C35 1628   7.059   5.556   0.534 -0.1753  0.4009 -0.4299
    4CHTO   O24 1629   7.052   5.524   0.673  0.0080 -0.8869  0.5123
    4CHTO   H39 1630   6.980   5.569   0.714 -2.1327 -4.1795  0.5399
    4CHTO    O9 1631   7.489   5.743   0.593  0.0085  0.3554  0.2910
    4CHTO   C13 1632   7.537   5.676   0.718 -0.1924 -0.1762  0.8489
    4CHTO   H26 1633   7.581   5.578   0.690 -1.8787 -0.5995 -0.4165
    4CHTO   C11 1634   7.424   5.657   0.818  0.6246 -0.1531 -0.5768
    4CHTO   H24 1635   7.349   5.593   0.769 -1.5184 -0.6828  3.2252
    4CHTO    O8 1636   7.356   5.780   0.843 -0.2934  0.6638  0.0727
    4CHTO    H3 1637   7.428   5.837   0.863  0.4858 -0.2417 -0.1310
    4CHTO    C9 1638   7.490   5.590   0.941  0.0634  0.5840  0.2544
    4CHTO   H22 1639   7.546   5.505   0.899 -0.1362  0.7863 -0.4252
    4CHTO    N2 1640   7.395   5.531   1.037  0.2696 -0.0178  0.8718
    4CHTO   H10 1641   7.294   5.551   1.004  0.9637 -1.2295 -2.2354
    4CHTO   H11 1642   7.404   5.424   1.054  1.2258 -0.2881 -1.1532
    4CHTO    C7 1643   7.592   5.690   1.006  0.4179 -0.4802 -0.1454
    4CHTO   H20 1644   7.673   5.625   1.045 -0.5642 -1.5105  0.2111
    4CHTO    O4 1645   7.638   5.790   0.916 -0.5452 -0.3605 -0.5297
    4CHTO   C14 1646   7.660   5.755   0.785  0.4419  0.2646 -0.0816
    4CHTO   H27 1647   7.750   5.690   0.777  0.7013  0.6142 -0.0310
    4CHTO   C18 1648   7.697   5.888   0.729  0.2382 -0.1386  0.3259
    4CHTO   O13 1649   7.748   5.876   0.600  0.1682  0.1787  0.1894
    4CHTO    H7 1650   7.782   5.961   0.580  0.2727  0.6602  2.2291
    4CHTO    O2 1651   7.520   5.771   1.129  0.7425  0.0186 -0.3046
    4CHTO    C1 1652   7.618   5.833   1.216 -0.2709  1.6579 -0.0017
    4CHTO   H14 1653   7.707   5.867   1.160  1.9892 -0.2741  2.2373
    4CHTO    C2 1654   7.679   5.739   1.331  0.0029 -0.0010 -0.9159
    4CHTO   H15 1655   7.595   5.674   1.362 -0.9956  2.2331  1.2290
    4CHTO    O6 1656   7.775   5.656   1.270 -0.1159 -0.5114 -0.0419
    4CHTO    H1 1657   7.784   5.574   1.315  0.9453 -1.4259 -1.8033
    4CHTO    C3 1658   7.734   5.803   1.465  0.1574 -0.0556 -0.1196
    4CHTO   H16 1659   7.836   5.830   1.432 -0.4566  1.5359 -0.7385
    4CHTO    N1 1660   7.745   5.724   1.592 -0.3578 -0.2339  0.0824
    4CHTO    H8 1661   7.648   5.682   1.611 -0.3691  0.2614  1.1368
    4CHTO    H9 1662   7.812   5.639   1.586  1.2343  0.9874  0.0739
    4CHTO    C4 1663   7.660   5.944   1.492 -0.2608  0.6538 -0.1297
    4CHTO   H17 1664   7.564   5.929   1.541  0.1766 -0.5650  0.3690
    4CHTO    O1 1665   7.639   6.021   1.373  0.0041  0.0906 -0.4795
    4CHTO    C5 1666   7.545   5.960   1.283  0.2059 -0.9278 -0.8152
    4CHTO   H18 1667   7.455   5.930   1.337 -0.0253 -0.5643 -1.0034
    4CHTO   C16 1668   7.508   6.068   1.187  0.1859  0.3647 -0.3779
    4CHTO   O11 1669   7.440   6.030   1.064  0.6900  0.6066  0.0931
    4CHTO    H5 1670   7.421   6.106   1.011  0.2307  1.5713  1.6246
    4CHTO    O3 1671   7.743   6.019   1.577  0.0821 -0.0124 -0.1212
    4CHTO    C6 1672   7.674   6.129   1.647  0.5180  0.7810 -0.2710
    4CHTO   H19 1673   7.585   6.156   1.591  1.0134  0.7057 -1.1091
    4CHTO    C8 1674   7.621   6.091   1.791 -0.0405  0.0086 -0.2405
    4CHTO   H21 1675   7.706   6.060   1.852  0.7576  0.4105 -1.1226
    4CHTO    O7 1676   7.538   5.976   1.790 -0.0373  0.2561  0.4315
    4CHTO    H2 1677   7.461   5.977   1.736  0.9615 -0.9154 -1.0649
    4CHTO   C12 1678   7.561   6.214   1.860 -0.1047 -0.6360  0.9722
    4CHTO   H25 1679   7.470   6.235   1.800  1.4480 -0.3303 -1.3480
    4CHTO    N3 1680   7.520   6.203   2.008 -0.0370  0.1271  0.3142
    4CHTO   H12 1681   7.593   6.142   2.059 -1.7184 -1.4653  0.8869
    4CHTO   H13 1682   7.417   6.170   2.014 -0.2497  0.7218 -0.0465
    4CHTO   C15 1683   7.658   6.340   1.843  0.1774 -0.6228 -0.0955
    4CHTO   H28 1684   7.753   6.318   1.891 -0.7384 -1.6107  1.2712
    4CHTO   O10 1685   7.604   6.467   1.878 -0.3105 -0.9152 -0.4111
    4CHTO    H4 1686   7.517   6.475   1.842  0.1525 -0.2128 -1.3739
    4CHTO    O5 1687   7.692   6.359   1.705 -0.3704  0.4583  0.5803
    4CHTO   C10 1688   7.771   6.252   1.648  0.0270  0.4447 -0.2070
    4CHTO   H23 1689   7.856   6.240   1.714  0.1749 -2.2221 -0.8448
    4CHTO   C17 1690   7.817   6.294   1.509  0.5437 -0.2633  0.0644
    4CHTO   O12 1691   7.712   6.315   1.417  0.9477 -0.0721  0.4801
    4CHTO    H6 1692   7.740   6.320   1.327 -0.2673  0.9863  0.1402
    5CHTO  H203 1693   7.386   3.375   2.676  0.0454  0.6358  0.1754
    5CHTO   O82 1694   7.454   3.427   2.637  0.0414  0.3356 -0.2301
    5CHTO  C123 1695   7.465   3.532   2.734 -0.0381  0.1529 -0.7206
    5CHTO  H227 1696   7.537   3.606   2.697 -0.5575  1.0422  0.0147
    5CHTO   O77 1697   7.337   3.602   2.727 -0.0228  0.3285 -0.2010
    5CHTO  C118 1698   7.323   3.710   2.823  0.4909 -0.8524  1.0263
    5CHTO  H222 1699   7.405   3.771   2.784 -0.8002  0.0521 -0.3204
    5CHTO  C125 1700   7.187   3.783   2.790  0.0663 -0.1500  0.7788
    5CHTO   O84 1701   7.199   3.851   2.664  0.1464 -0.1742  0.0253
    5CHTO  H205 1702   7.210   3.792   2.593  1.9779  0.0266  0.1105
    5CHTO  C114 1703   7.343   3.658   2.973 -0.7706  0.0492  0.2536
    5CHTO  H218 1704   7.264   3.585   2.989  0.0486 -0.5249  1.7832
    5CHTO  C116 1705   7.476   3.576   2.995  0.2786 -0.5921 -0.2359
    5CHTO  H220 1706   7.558   3.651   2.988  1.1413 -1.6181 -1.2694
    5CHTO   O79 1707   7.478   3.520   3.130 -0.1293  0.3019  0.0446
    5CHTO  H201 1708   7.410   3.459   3.150  0.1520 -0.5487 -1.5305
    5CHTO  C120 1709   7.497   3.467   2.876  0.2012  0.5460 -0.2120
    5CHTO  H224 1710   7.438   3.376   2.902  0.7697  0.7627  1.9662
    5CHTO   N21 1711   7.636   3.419   2.885  0.7871 -0.1877  0.2779
    5CHTO  H211 1712   7.695   3.508   2.868  0.6895 -0.3470 -0.9693
    5CHTO  H212 1713   7.663   3.340   2.816 -1.3646  0.7609 -1.7647
    5CHTO   O75 1714   7.323   3.779   3.041 -0.0233  0.4148 -0.0476
    5CHTO  C112 1715   7.220   3.765   3.156  0.2468 -0.0280  0.1260
    5CHTO  H216 1716   7.223   3.658   3.182  1.0998 -0.0841 -0.1750
    5CHTO   O73 1717   7.090   3.805   3.100 -0.3636  0.1584  0.4458
    5CHTO  C113 1718   6.973   3.794   3.185  0.3309 -0.3480  0.1854
    5CHTO  H217 1719   6.974   3.689   3.221 -0.7708 -1.4017 -2.7403
    5CHTO  C124 1720   6.841   3.815   3.108 -0.3582 -0.1653 -0.1358
    5CHTO   O83 1721   6.811   3.953   3.071 -0.1582  0.1675  0.1385
    5CHTO  H204 1722   6.821   4.009   3.146 -1.5571 -2.5787  2.4664
    5CHTO  C109 1723   6.995   3.903   3.290  0.0623 -0.4258 -0.1372
    5CHTO  H213 1724   7.009   3.998   3.236 -2.3667 -0.3827 -0.7429
    5CHTO  C110 1725   7.122   3.869   3.378 -0.4360  0.0603  0.1101
    5CHTO  H214 1726   7.103   3.770   3.418  3.4561 -1.3500 -1.2699
    5CHTO   O78 1727   7.141   3.971   3.481  0.0687  0.0159 -0.0357
    5CHTO  H200 1728   7.229   3.981   3.512  0.4549 -0.0348 -1.1039
    5CHTO  C111 1729   7.252   3.856   3.285 -0.0955 -1.3171  0.4029
    5CHTO  H215 1730   7.273   3.955   3.242 -0.2475 -0.8266  1.4488
    5CHTO   N19 1731   7.375   3.809   3.356 -0.7070 -0.3905  0.2626
    5CHTO  H207 1732   7.353   3.749   3.443  0.4768 -0.4909  0.5012
    5CHTO  H208 1733   7.437   3.763   3.281 -0.9406  1.4387 -1.0822
    5CHTO   O74 1734   6.872   3.912   3.368 -0.5510  0.2528  0.4194
    5CHTO  C115 1735   6.845   4.058   3.454 -0.0416  0.0995 -0.3667
    5CHTO  H219 1736   6.921   4.073   3.530 -0.9129  0.5794  0.4287
    5CHTO   O76 1737   6.862   4.195   3.350  1.0817  0.4897  0.3368
    5CHTO  C122 1738   6.758   4.228   3.260 -0.0409  0.2940 -0.1724
    5CHTO  H226 1739   6.775   4.185   3.161 -0.8695 -2.3844  0.7900
    5CHTO  C126 1740   6.744   4.381   3.236  0.0958  0.3441 -0.4315
    5CHTO   O85 1741   6.868   4.437   3.181  0.1695  0.4761 -0.5412
    5CHTO  H206 1742   6.922   4.461   3.253 -1.9952 -1.9804  2.0194
    5CHTO  C121 1743   6.625   4.176   3.325  0.2389  0.2673  0.2663
    5CHTO  H225 1744   6.535   4.230   3.291 -0.7608 -2.5350 -1.7146
    5CHTO   O81 1745   6.584   4.049   3.264  0.0394 -0.3595 -0.0466
    5CHTO  H202 1746   6.659   3.999   3.239 -0.2692 -2.9622  3.9317
    5CHTO  C119 1747   6.624   4.175   3.476 -0.0489 -0.6529 -0.0004
    5CHTO  H223 1748   6.678   4.264   3.509 -0.9830  0.4751 -1.4073
    5CHTO  C117 1749   6.704   4.049   3.528 -0.1786  0.3663 -0.2415
    5CHTO  H221 1750   6.663   3.952   3.498 -0.4975  0.7021 -0.8847
    5CHTO   N20 1751   6.723   4.041   3.675 -0.3459  0.6350  0.5860
    5CHTO  H209 1752   6.758   3.942   3.698  0.1014  0.2040 -1.8349
    5CHTO  H210 1753   6.800   4.108   3.710  1.6474 -2.3093  2.0311
    5CHTO   O80 1754   6.482   4.194   3.546 -0.0076 -0.1308  0.0450
    5CHTO  C103 1755   6.345   4.122   3.475 -0.6843  0.0439 -0.2027
    5CHTO  H190 1756   6.351   4.137   3.367 -0.5294  2.4795  0.1199
    5CHTO  C101 1757   6.316   3.971   3.514  0.4040 -0.4846  0.0850
    5CHTO  H188 1758   6.327   3.959   3.622 -1.2723  0.4258  0.3646
    5CHTO   O68 1759   6.424   3.891   3.431  0.3511  0.5159 -0.0639
    5CHTO  H168 1760   6.428   3.913   3.340 -0.0737 -2.1742 -0.7789
    5CHTO   C99 1761   6.162   3.929   3.461 -0.3464  0.4841  0.1999
    5CHTO  H186 1762   6.164   3.952   3.352 -1.8855 -1.8605 -0.3601
    5CHTO   N17 1763   6.115   3.787   3.491 -0.0893 -0.1426 -0.6587
    5CHTO  H174 1764   6.108   3.730   3.399 -1.8353 -0.2866 -0.4505
    5CHTO  H175 1765   6.182   3.734   3.558 -0.4969  0.8928  0.5862
    5CHTO   C97 1766   6.063   4.034   3.532  0.2745  0.7306 -0.5759
    5CHTO  H184 1767   6.081   4.032   3.641  0.0127  0.1062 -0.5398
    5CHTO   O64 1768   6.094   4.157   3.474  0.8618 -0.5584  0.4592
    5CHTO  C104 1769   6.229   4.203   3.523 -0.1902 -0.4642  0.0162
    5CHTO  H191 1770   6.229   4.208   3.632 -1.0873  2.4262 -0.0778
    5CHTO  C108 1771   6.234   4.344   3.467 -0.0494  0.1578 -0.0535
    5CHTO   O71 1772   6.214   4.447   3.565 -0.4143 -0.0101 -0.1655
    5CHTO  H171 1773   6.212   4.528   3.519 -1.3517  1.2190  1.9754
    5CHTO   O62 1774   5.923   4.007   3.524  0.0410  0.1180  0.8173
    5CHTO   C91 1775   5.848   4.039   3.409  0.2806 -0.9263  0.1361
    5CHTO  H178 1776   5.875   4.141   3.382  1.7106 -1.3265 -0.0029
    5CHTO   C92 1777   5.697   4.041   3.449  0.4011 -0.1089  0.9845
    5CHTO  H179 1778   5.688   4.108   3.535  0.8504  0.4102  0.6281
    5CHTO   O66 1779   5.634   4.099   3.337 -0.1831 -0.1078  0.2036
    5CHTO  H166 1780   5.561   4.150   3.367  0.3171  1.1334 -0.6429
    5CHTO   C93 1781   5.632   3.892   3.468 -0.0712  0.6078 -0.3931
    5CHTO  H180 1782   5.524   3.901   3.454 -0.4130 -1.5939  0.5713
    5CHTO   N16 1783   5.649   3.837   3.607  0.6901  0.4771  0.8939
    5CHTO  H172 1784   5.599   3.741   3.609 -1.0267  1.3722  2.2227
    5CHTO  H173 1785   5.752   3.827   3.636  0.2570 -0.2617  2.1864
    5CHTO   C94 1786   5.692   3.801   3.355  0.2566 -0.5738  0.8494
    5CHTO  H181 1787   5.767   3.732   3.393 -0.4685 -0.6030  2.2527
    5CHTO   O61 1788   5.750   3.875   3.242 -0.5022 -0.4635 -0.1097
    5CHTO   C95 1789   5.869   3.951   3.280 -0.3554  0.1746  0.1329
    5CHTO  H182 1790   5.947   3.875   3.288 -1.4715 -0.9324  0.7075
    5CHTO  C106 1791   5.915   4.038   3.167 -0.4149  0.4335  0.1280
    5CHTO   O69 1792   5.981   3.961   3.066 -0.9155  0.3521  0.1107
    5CHTO  H169 1793   5.994   3.997   2.980 -0.0761 -0.3557 -0.0683
    5CHTO   O63 1794   5.575   3.725   3.285  0.4174 -0.1131  0.2160
    5CHTO   C96 1795   5.627   3.608   3.201  0.1016 -0.1507 -0.6759
    5CHTO  H183 1796   5.733   3.614   3.177  0.5742 -0.6505  1.2524
    5CHTO   C98 1797   5.551   3.616   3.061 -0.3591 -0.3059 -0.0166
    5CHTO  H185 1798   5.547   3.720   3.025 -1.0129 -0.5589 -0.7003
    5CHTO   O67 1799   5.643   3.553   2.970 -0.1948  0.1126  0.2311
    5CHTO  H167 1800   5.600   3.519   2.894 -1.6160  1.5340  0.3531
    5CHTO  C102 1801   5.419   3.534   3.063 -0.0883  0.1113  0.2024
    5CHTO  H189 1802   5.385   3.528   2.959  1.4574 -2.2572 -0.1949
    5CHTO   N18 1803   5.305   3.594   3.132  0.0222 -0.1336 -0.2650
    5CHTO  H176 1804   5.316   3.620   3.236 -0.1680 -0.8745 -0.0573
    5CHTO  H177 1805   5.272   3.683   3.081 -0.6581 -1.1565 -1.6359
    5CHTO  C105 1806   5.437   3.391   3.112 -0.2860  1.2976 -0.3242
    5CHTO  H192 1807   5.355   3.358   3.175 -0.4032  1.9866 -0.1110
    5CHTO   O65 1808   5.561   3.369   3.185  0.6208 -0.1324  0.2519
    5CHTO  C100 1809   5.601   3.471   3.274 -0.0009  0.0242 -0.0790
    5CHTO  H187 1810   5.514   3.481   3.341  0.1238 -0.4504  0.1563
    5CHTO  C107 1811   5.729   3.434   3.352  0.0286  0.3406  0.4023
    5CHTO   O70 1812   5.747   3.525   3.460 -0.2121  0.4113  0.1801
    5CHTO  H170 1813   5.756   3.484   3.544 -0.9959  1.1154  0.6107
    5CHTO   O57 1814   5.440   3.300   2.962 -0.2286  0.2758  0.0184
    5CHTO   C85 1815   5.380   3.171   2.976 -0.5157 -0.5497 -0.2781
    5CHTO  H157 1816   5.276   3.182   3.014 -0.0255  0.0207  0.9197
    5CHTO   C83 1817   5.446   3.072   3.081  0.8984 -0.2433 -0.4018
    5CHTO  H155 1818   5.433   3.122   3.176  3.9526 -1.6891  0.8716
    5CHTO   O56 1819   5.584   3.067   3.064  0.1665 -0.2287  0.4565
    5CHTO  H135 1820   5.621   3.153   3.066 -0.1690 -0.1221  1.9384
    5CHTO   C81 1821   5.372   2.932   3.076 -0.2291 -0.4986 -0.3294
    5CHTO  H153 1822   5.266   2.944   3.094 -0.6833  0.9207 -3.6131
    5CHTO   N14 1823   5.414   2.840   3.184 -0.1303 -0.3597  0.4967
    5CHTO  H141 1824   5.496   2.785   3.142  1.6618  1.2468  1.8014
    5CHTO  H142 1825   5.447   2.894   3.270 -1.3903  2.3258 -0.6519
    5CHTO   C79 1826   5.385   2.865   2.929 -0.5463 -0.2846  0.2738
    5CHTO  H151 1827   5.342   2.766   2.935  1.0972 -1.0020  0.5263
    5CHTO   O52 1828   5.330   2.955   2.826 -0.2588  0.2631  0.5201
    5CHTO   C86 1829   5.379   3.096   2.829 -0.0875 -0.0834 -0.6992
    5CHTO  H158 1830   5.479   3.105   2.782  0.3569  2.8565  0.6289
    5CHTO   C90 1831   5.292   3.187   2.739 -0.0850  0.1122  0.0246
    5CHTO   O60 1832   5.310   3.151   2.604  0.9065 -0.0775 -0.1503
    5CHTO  H138 1833   5.318   3.058   2.593  0.2131  0.2422 -3.9289
    5CHTO   O50 1834   5.517   2.842   2.896  0.4473  0.3669 -0.3173
    5CHTO   C73 1835   5.603   2.751   2.832  0.8882 -0.1531  0.5406
    5CHTO  H145 1836   5.546   2.697   2.755  0.5094  1.6066 -0.4445
    5CHTO   C74 1837   5.666   2.647   2.934 -0.2024  0.0572  0.0644
    5CHTO  H146 1838   5.579   2.598   2.980 -0.5651  0.0046 -0.6750
    5CHTO   O54 1839   5.725   2.539   2.855  0.2859 -0.1356  0.2697
    5CHTO  H133 1840   5.799   2.574   2.808 -0.4174  1.6028  0.4002
    5CHTO   C75 1841   5.758   2.720   3.039 -0.9036  0.3974  0.3948
    5CHTO  H147 1842   5.695   2.790   3.097  1.7617  0.1725  3.6926
    5CHTO   N13 1843   5.812   2.636   3.149 -0.3449 -0.3566  1.0483
    5CHTO  H139 1844   5.864   2.546   3.120 -1.1696 -1.5043  3.0700
    5CHTO  H140 1845   5.830   2.687   3.242  0.7059 -0.3268  0.8293
    5CHTO   C76 1846   5.872   2.799   2.953  0.5370 -0.3774 -0.2955
    5CHTO  H148 1847   5.932   2.727   2.898 -0.5552 -0.2165 -1.7357
    5CHTO   O49 1848   5.797   2.890   2.861  0.0317 -0.3457 -0.5046
    5CHTO   C77 1849   5.722   2.820   2.761 -0.1733 -0.0511 -0.2986
    5CHTO  H149 1850   5.778   2.750   2.699 -1.5473  1.6368 -3.5252
    5CHTO   C88 1851   5.681   2.917   2.652  0.4374  0.2703 -0.0990
    5CHTO   O58 1852   5.644   2.834   2.521 -0.6610 -0.1893 -0.5328
    5CHTO  H136 1853   5.554   2.809   2.512 -1.1950  0.4549  2.3563
    5CHTO   O51 1854   5.970   2.893   3.052  0.2392  0.2495 -0.2727
    5CHTO   C78 1855   6.077   2.992   2.995  0.2360  0.0323  0.1001
    5CHTO  H150 1856   6.029   3.039   2.907 -3.3979 -1.1041  1.3398
    5CHTO   C80 1857   6.203   2.913   2.957 -0.0792  0.7359  0.5184
    5CHTO  H152 1858   6.232   2.858   3.048 -2.6375 -0.7077  0.5132
    5CHTO   O55 1859   6.168   2.821   2.848 -0.3643 -0.5272 -0.6595
    5CHTO  H134 1860   6.155   2.872   2.771  0.7743 -0.3959 -0.7680
    5CHTO   C84 1861   6.322   3.012   2.922 -0.3981  0.3654 -0.0350
    5CHTO  H156 1862   6.300   3.074   2.835 -0.5382  0.5409  0.1241
    5CHTO   N15 1863   6.447   2.939   2.899  1.0098  0.3467 -0.4608
    5CHTO  H143 1864   6.520   2.993   2.842  1.6945  0.7567  0.7971
    5CHTO  H144 1865   6.490   2.902   2.989 -0.6447 -1.0446 -0.2177
    5CHTO   C87 1866   6.334   3.112   3.037 -0.4414 -0.1872 -0.1280
    5CHTO  H159 1867   6.355   3.053   3.126 -2.4249  0.5140  0.8201
    5CHTO   O53 1868   6.190   3.194   3.052  0.1608  0.2905  0.5067
    5CHTO   C82 1869   6.096   3.106   3.103  0.5612 -0.5885  0.0826
    5CHTO  H154 1870   6.118   3.074   3.205 -0.6329  1.4694  1.0228
    5CHTO   C89 1871   5.960   3.184   3.119 -0.0133  0.3700 -0.3900
    5CHTO   O59 1872   5.865   3.113   3.196  0.0288 -0.3466 -0.1762
    5CHTO  H137 1873   5.862   3.135   3.287  0.8262  1.7707 -0.6460
    5CHTO   O45 1874   6.444   3.219   3.013  0.3653  0.0328  0.6236
    5CHTO   C67 1875   6.480   3.290   3.137  0.8544 -0.2522 -0.1322
    5CHTO  H124 1876   6.393   3.291   3.203  2.0458 -3.3602  1.6028
    5CHTO   C65 1877   6.610   3.223   3.210 -0.1281 -0.3767  0.1354
    5CHTO  H122 1878   6.664   3.174   3.129  0.2787 -1.2098  0.8955
    5CHTO   O44 1879   6.548   3.118   3.291  0.6723 -1.0646  0.7188
    5CHTO  H102 1880   6.575   3.122   3.381  0.0398 -3.3044  1.0385
    5CHTO   C63 1881   6.709   3.319   3.274 -0.0657 -0.5561 -0.0270
    5CHTO  H120 1882   6.766   3.365   3.193 -2.4714  1.9446 -0.3962
    5CHTO   N11 1883   6.816   3.246   3.355  0.5014 -0.6072  0.2519
    5CHTO  H108 1884   6.824   3.281   3.456 -3.2541  0.2281  0.3391
    5CHTO  H109 1885   6.912   3.261   3.310  0.9076 -2.1066  0.5776
    5CHTO   C61 1886   6.634   3.435   3.352 -0.2155 -1.7034  0.4941
    5CHTO  H118 1887   6.704   3.512   3.388 -2.5003  1.1445 -0.9364
    5CHTO   O40 1888   6.550   3.505   3.250 -0.2065 -0.5602  0.2745
    5CHTO   C68 1889   6.513   3.450   3.125 -0.2132 -0.4850 -0.0797
    5CHTO  H125 1890   6.590   3.483   3.053 -1.5887 -0.7377 -1.7174
    5CHTO   C72 1891   6.383   3.525   3.080 -0.1823 -0.4705  0.3169
    5CHTO   O48 1892   6.404   3.667   3.071 -0.0847 -0.2358 -0.1784
    5CHTO  H105 1893   6.414   3.702   2.984  1.8329  0.7243  0.4083
    5CHTO   O38 1894   6.550   3.396   3.458  0.2717  0.0967 -0.1497
    5CHTO   C55 1895   6.459   3.480   3.523  0.1724  0.0783  0.2243
    5CHTO  H112 1896   6.429   3.558   3.452  1.2401 -1.4702 -1.9751
    5CHTO   C56 1897   6.532   3.542   3.649  0.1634  0.0388 -0.1593
    5CHTO  H113 1898   6.571   3.461   3.714 -0.6820  1.2002  1.8283
    5CHTO   O42 1899   6.646   3.617   3.598  0.2241  0.8241  0.4849
    5CHTO  H100 1900   6.611   3.686   3.544  1.1244  2.1803  1.5897
    5CHTO   C57 1901   6.437   3.634   3.733 -0.6792  0.1942  0.0331
    5CHTO  H114 1902   6.419   3.723   3.673  0.8554  0.3077 -0.2724
    5CHTO   N10 1903   6.484   3.705   3.853  0.1514 -0.4782  0.7564
    5CHTO  H106 1904   6.470   3.641   3.939 -0.1555  0.2299  1.2365
    5CHTO  H107 1905   6.591   3.717   3.840 -0.1914  2.2806  0.1873
    5CHTO   C58 1906   6.297   3.568   3.759 -0.7183 -0.1424 -0.6766
    5CHTO  H115 1907   6.306   3.482   3.830  0.9226 -0.3533 -1.1291
    5CHTO   O37 1908   6.252   3.524   3.632  0.0505 -0.4592  0.8067
    5CHTO   C59 1909   6.326   3.416   3.569 -0.0283 -0.8093 -0.8470
    5CHTO  H116 1910   6.355   3.326   3.623  1.6360 -1.5389 -2.8810
    5CHTO   C70 1911   6.253   3.374   3.441 -0.5826 -0.2575  0.2330
    5CHTO   O46 1912   6.134   3.298   3.473 -0.7328  0.6216 -0.1165
    5CHTO  H103 1913   6.157   3.221   3.522 -1.9511  1.1184  1.2322
    5CHTO   O39 1914   6.185   3.675   3.821  0.5440  0.1704  0.7024
    5CHTO   C60 1915   6.046   3.650   3.830  0.4600 -0.2638  0.2324
    5CHTO  H117 1916   6.008   3.679   3.732 -2.0794 -2.7930  0.4261
    5CHTO   C62 1917   6.008   3.508   3.872 -0.2360  0.4158 -0.0412
    5CHTO  H119 1918   6.053   3.447   3.791 -1.0024  0.4034 -0.4728
    5CHTO   O43 1919   6.070   3.480   3.996  0.1410  0.5011  0.0769
    5CHTO  H101 1920   6.080   3.388   4.009 -2.5229  0.2309  0.5182
    5CHTO   C66 1921   5.851   3.489   3.881  0.4269  0.3408 -0.0882
    5CHTO  H123 1922   5.806   3.518   3.786  0.7748 -0.9467 -0.6587
    5CHTO   N12 1923   5.827   3.343   3.888 -0.0718  0.2123  0.3744
    5CHTO  H110 1924   5.720   3.333   3.880 -0.0970 -0.1997  1.1574
    5CHTO  H111 1925   5.862   3.318   3.987  0.9469 -1.0244 -0.2737
    5CHTO   C69 1926   5.791   3.578   3.986 -0.0595  0.1071 -1.0154
    5CHTO  H126 1927   5.832   3.559   4.088 -0.8795 -1.2134 -0.9197
    5CHTO   O41 1928   5.824   3.715   3.960  0.3179  0.0807  0.3282
    5CHTO   C64 1929   5.984   3.745   3.935 -0.1599 -0.1661 -0.2668
    5CHTO  H121 1930   6.038   3.724   4.030  2.0536 -1.6200 -1.8111
    5CHTO   C71 1931   6.006   3.895   3.893 -0.2470 -0.0346  0.4749
    5CHTO   O47 1932   5.975   3.985   3.994  0.1415  0.3827 -0.1513
    5CHTO  H104 1933   6.024   3.979   4.073  0.7285  1.5548 -0.4133
    5CHTO   O34 1934   5.629   3.558   3.991 -0.4383  0.5731  0.1190
    5CHTO   C49 1935   5.525   3.464   4.045 -0.0919  0.1641 -0.2485
    5CHTO   H91 1936   5.588   3.376   4.058 -1.6664 -0.7217  1.7334
    5CHTO   C47 1937   5.420   3.445   3.935 -0.2856  0.3139 -0.2099
    5CHTO   H89 1938   5.351   3.363   3.963  1.5602 -1.3973 -0.5871
    5CHTO   O33 1939   5.488   3.406   3.817  0.8624 -0.0121 -0.3326
    5CHTO   H70 1940   5.504   3.314   3.816  0.7889 -0.0220 -1.8043
    5CHTO   C45 1941   5.337   3.589   3.925 -0.1035 -0.4391 -0.0055
    5CHTO   H87 1942   5.404   3.675   3.922  1.4136 -1.5577  1.1003
    5CHTO    N8 1943   5.249   3.583   3.808 -0.1859  0.2802 -1.0146
    5CHTO   H75 1944   5.315   3.595   3.723  1.0123  2.4365  0.1965
    5CHTO   H76 1945   5.168   3.653   3.803 -1.7609 -1.3122  1.1681
    5CHTO   C43 1946   5.261   3.618   4.067 -0.8469  0.3935  0.4288
    5CHTO   H85 1947   5.210   3.714   4.060  0.4414  1.2000  1.7849
    5CHTO   O29 1948   5.350   3.610   4.177 -0.3306 -0.2560 -0.3855
    5CHTO   C50 1949   5.457   3.513   4.176 -0.1607  0.2360 -0.2505
    5CHTO   H92 1950   5.540   3.545   4.241 -3.4880  1.9514  3.3751
    5CHTO   C54 1951   5.417   3.394   4.258  0.5377 -0.0340  0.0390
    5CHTO   O36 1952   5.371   3.422   4.393 -0.2921 -0.3071 -0.3610
    5CHTO   H72 1953   5.401   3.508   4.416 -1.5347 -0.1270  0.6105
    5CHTO   O27 1954   5.147   3.527   4.086 -0.1786 -0.0960 -0.2526
    5CHTO   C37 1955   5.064   3.422   4.124  0.1691 -0.2314 -0.7190
    5CHTO   H79 1956   4.973   3.440   4.065 -0.8525 -0.6204  0.7328
    5CHTO   C38 1957   5.129   3.278   4.091  0.0623  0.1013  0.3329
    5CHTO   H80 1958   5.234   3.278   4.124  0.5182 -2.1481 -1.0452
    5CHTO   O31 1959   5.122   3.260   3.950  0.0139  0.4491 -0.5760
    5CHTO   H68 1960   5.184   3.319   3.912 -1.9389  1.5055 -2.2359
    5CHTO   C39 1961   5.041   3.166   4.173 -0.3908  0.6971  0.7448
    5CHTO   H81 1962   4.954   3.140   4.111  0.3485  1.7092 -0.7401
    5CHTO    N7 1963   5.109   3.028   4.188 -0.1192  0.5005 -0.0417
    5CHTO   H73 1964   5.037   2.957   4.152  0.4599  0.5220 -1.2689
    5CHTO   H74 1965   5.113   3.006   4.294 -1.0715  2.0144  0.3135
    5CHTO   C40 1966   4.988   3.211   4.315 -0.5418  0.2656 -0.0887
    5CHTO   H82 1967   5.078   3.207   4.377  0.1503  3.7564 -0.7412
    5CHTO   O26 1968   4.927   3.345   4.323 -0.0483  0.5544  0.6226
    5CHTO   C41 1969   5.032   3.437   4.279  0.2846  0.7803 -0.0859
    5CHTO   H83 1970   5.126   3.430   4.336 -0.6581 -0.2179  1.3888
    5CHTO   C52 1971   4.975   3.579   4.308 -0.6366 -0.3935  0.6587
    5CHTO   O35 1972   4.856   3.619   4.215  0.1836 -0.7124  0.2547
    5CHTO   H71 1973   4.766   3.597   4.231 -0.0920  0.4057  0.2715
    5CHTO   O28 1974   4.894   3.111   4.367  0.4183 -0.0857 -0.1456
    5CHTO   C42 1975   4.876   3.097   4.516  0.8513  0.6242  0.1989
    5CHTO   H84 1976   4.782   3.043   4.520  1.2735 -0.0308  1.4182
    5CHTO   C44 1977   4.861   3.228   4.598  0.0741 -0.0052 -0.0063
    5CHTO   H86 1978   4.952   3.287   4.583 -0.0139  0.5862  1.6264
    5CHTO   O32 1979   4.745   3.300   4.550 -0.1911  0.3204  0.3973
    5CHTO   H69 1980   4.663   3.260   4.574 -1.4106  0.7451 -2.8652
    5CHTO   C48 1981   4.843   3.189   4.752  0.4023  0.4937 -0.4373
    5CHTO   H90 1982   4.759   3.121   4.765  0.9017 -0.3740 -1.6691
    5CHTO    N9 1983   4.811   3.312   4.835  0.4882  0.4680 -0.4657
    5CHTO   H77 1984   4.709   3.302   4.868  0.3882  1.8055 -0.3420
    5CHTO   H78 1985   4.875   3.320   4.922  1.8893  1.2430 -1.5470
    5CHTO   C51 1986   4.965   3.117   4.806 -0.5289  0.1756 -0.6799
    5CHTO   H93 1987   5.054   3.175   4.781  1.2831 -2.1671  0.0550
    5CHTO   O30 1988   4.963   2.990   4.735  0.0029  0.0226 -0.6736
    5CHTO   C46 1989   4.984   3.004   4.587 -0.1224  1.0733  0.6855
    5CHTO   H88 1990   5.079   3.048   4.558  1.5087 -3.7956 -1.9250
    5CHTO   C53 1991   4.987   2.868   4.530 -0.4046 -0.1466  0.2894
    5CHTO   O72 1992   5.088   2.793   4.591 -0.2118 -0.2541 -1.0355
    5CHTO  H199 1993   5.083   2.815   4.682 -1.8336  1.8163 -1.5815
    5CHTO   O22 1994   4.973   3.077   4.947  0.0241  0.3680 -0.3094
    5CHTO   C31 1995   5.111   3.080   5.003 -0.0920 -0.0665 -0.0567
    5CHTO   H59 1996   5.102   3.028   5.100 -0.3312  1.2746  0.6581
    5CHTO   C29 1997   5.223   3.003   4.921 -0.1523 -0.1970 -0.0832
    5CHTO   H57 1998   5.214   3.033   4.816 -0.0753  0.1048 -0.0040
    5CHTO   O21 1999   5.185   2.863   4.936 -0.0806  0.1450  0.2676
    5CHTO   H37 2000   5.178   2.835   5.025 -2.7738 -1.7578 -0.4684
    5CHTO   C27 2001   5.372   3.028   4.966 -0.0309 -0.3643 -0.6504
    5CHTO   H55 2002   5.378   2.975   5.063 -2.3302 -1.0795 -0.8702
    5CHTO    N5 2003   5.474   2.969   4.877 -0.4539 -0.6388 -0.1331
    5CHTO   H43 2004   5.438   2.940   4.780 -0.1921 -0.2488 -0.3482
    5CHTO   H44 2005   5.548   2.908   4.927  1.1467  0.2024 -1.4362
    5CHTO   C25 2006   5.384   3.175   4.989  0.3756 -0.4374  0.3153
    5CHTO   H53 2007   5.367   3.231   4.896 -1.5137  2.2357  2.1849
    5CHTO   O17 2008   5.287   3.216   5.094  0.1954 -0.2316  0.1999
    5CHTO   C32 2009   5.157   3.225   5.043  0.5735  0.3326  0.4429
    5CHTO   H60 2010   5.158   3.284   4.951 -0.8712 -1.4113 -0.7315
    5CHTO   C36 2011   5.067   3.284   5.163 -0.7637 -0.2422 -0.1752
    5CHTO   O25 2012   4.932   3.306   5.122 -0.9917 -0.2380 -0.5176
    5CHTO   H40 2013   4.904   3.236   5.066  1.0893 -0.6727 -1.0480
    5CHTO   O15 2014   5.514   3.240   5.026  0.7998 -0.0530 -0.3267
    5CHTO   C19 2015   5.568   3.372   5.003 -0.1986 -0.6629 -0.0878
    5CHTO   H47 2016   5.486   3.445   5.001 -0.3059 -0.7724  0.5398
    5CHTO   C20 2017   5.654   3.416   5.131 -0.0412 -0.3323  0.2651
    5CHTO   H48 2018   5.727   3.339   5.161  1.8307  0.9741 -0.7909
    5CHTO   O19 2019   5.570   3.447   5.243 -0.1458  0.0234 -0.5489
    5CHTO   H35 2020   5.538   3.534   5.232  2.7653  1.3056  0.6868
    5CHTO   C21 2021   5.738   3.551   5.100 -0.2720 -0.5209  0.5785
    5CHTO   H49 2022   5.674   3.639   5.102 -0.9662 -0.9832 -0.4262
    5CHTO    N4 2023   5.841   3.581   5.209 -0.1184 -0.5439  0.1371
    5CHTO   H41 2024   5.917   3.506   5.224  0.8186 -0.2964 -3.0549
    5CHTO   H42 2025   5.885   3.679   5.199 -0.2889 -0.4573  0.2443
    5CHTO   C22 2026   5.800   3.551   4.956 -0.1169 -0.5320 -0.3559
    5CHTO   H50 2027   5.882   3.480   4.960 -1.2181 -1.8307 -0.8057
    5CHTO   O14 2028   5.701   3.522   4.855  0.1689 -0.5215 -0.5461
    5CHTO   C23 2029   5.647   3.393   4.865  0.4578 -0.1603 -0.3148
    5CHTO   H51 2030   5.728   3.319   4.855  0.9402  0.4427 -0.8646
    5CHTO   C34 2031   5.549   3.386   4.754 -0.0275  0.2641  0.1502
    5CHTO   O23 2032   5.601   3.411   4.623 -0.2867  0.4938 -0.4312
    5CHTO   H38 2033   5.539   3.379   4.560 -0.0119 -1.1248  0.0760
    5CHTO   O16 2034   5.849   3.681   4.917  0.2568 -0.5556  0.3836
    5CHTO   C24 2035   5.987   3.686   4.830  1.3455  0.0366 -0.0058
    5CHTO   H52 2036   6.018   3.586   4.803 -1.9571 -0.5674 -1.8288
    5CHTO   C26 2037   6.092   3.753   4.911 -0.1467  0.7555 -1.1548
    5CHTO   H54 2038   6.057   3.855   4.939  0.3190  0.1125  1.9893
    5CHTO   O20 2039   6.107   3.672   5.029 -0.3645 -0.2972  0.4640
    5CHTO   H36 2040   6.179   3.708   5.077  1.0697 -0.5645 -1.3944
    5CHTO   C30 2041   6.222   3.768   4.826  0.2097  0.1982  0.0742
    5CHTO   H58 2042   6.260   3.666   4.813  1.6683  0.8167 -0.6325
    5CHTO    N6 2043   6.328   3.834   4.907 -0.3813  0.4730  0.1219
    5CHTO   H45 2044   6.416   3.772   4.920 -0.1373  1.1020  1.6999
    5CHTO   H46 2045   6.297   3.871   5.004 -0.0690  2.1511 -0.4030
    5CHTO   C33 2046   6.197   3.827   4.685 -0.0291  0.3168 -1.0076
    5CHTO   H61 2047   6.176   3.933   4.702 -1.6248  0.0611 -1.3385
    5CHTO   O18 2048   6.081   3.772   4.614 -0.3748  0.2137  0.3742
    5CHTO   C28 2049   5.960   3.761   4.694  0.1359  0.3226  0.2756
    5CHTO   H56 2050   5.912   3.855   4.719  1.0172  1.1469 -1.0735
    5CHTO   C35 2051   5.862   3.697   4.590 -0.2684 -0.1816  0.6663
    5CHTO   O24 2052   5.724   3.728   4.604  0.1174  0.0588  0.1235
    5CHTO   H39 2053   5.693   3.699   4.688  2.3033 -1.5144  0.4380
    5CHTO    O9 2054   6.313   3.823   4.604  0.3016  0.9263 -0.5218
    5CHTO   C13 2055   6.372   3.664   4.572 -0.2022  0.6708 -0.0775
    5CHTO   H26 2056   6.294   3.592   4.604 -1.7115  2.6024  0.7017
    5CHTO   C11 2057   6.509   3.637   4.643 -0.1943  0.1668  0.8757
    5CHTO   H24 2058   6.496   3.613   4.750 -0.4846 -1.4097  0.4968
    5CHTO    O8 2059   6.601   3.753   4.634  0.7993 -0.0554 -0.4099
    5CHTO    H3 2060   6.559   3.836   4.648  0.3898 -0.4462  0.7448
    5CHTO    C9 2061   6.578   3.520   4.566 -0.4629 -0.7564  0.4483
    5CHTO   H22 2062   6.509   3.434   4.570 -1.4571 -0.1501 -2.5432
    5CHTO    N2 2063   6.702   3.474   4.643  0.0169  0.0617 -0.4088
    5CHTO   H10 2064   6.690   3.375   4.686 -0.9033  0.9186  1.3735
    5CHTO   H11 2065   6.799   3.496   4.602 -0.0223 -0.7066 -0.9296
    5CHTO    C7 2066   6.604   3.550   4.410  0.7991  0.5494 -0.2300
    5CHTO   H20 2067   6.567   3.455   4.366 -0.2273  1.1979 -0.7556
    5CHTO    O4 2068   6.515   3.654   4.363  0.2412 -0.3378 -0.2162
    5CHTO   C14 2069   6.386   3.630   4.414  0.5680  1.3842 -0.7214
    5CHTO   H27 2070   6.356   3.525   4.400  1.5567  0.9265  0.4532
    5CHTO   C18 2071   6.283   3.709   4.336  0.1517  0.2083  0.6294
    5CHTO   O13 2072   6.283   3.690   4.190  0.2081 -0.1086 -0.2341
    5CHTO    H7 2073   6.193   3.680   4.166  0.2985 -0.5445 -0.3991
    5CHTO    O2 2074   6.740   3.578   4.371 -0.0229 -0.5181  0.4961
    5CHTO    C1 2075   6.776   3.522   4.241  0.0609 -0.1424 -1.2827
    5CHTO   H14 2076   6.690   3.482   4.183  0.4460  0.2823 -2.1499
    5CHTO    C2 2077   6.882   3.404   4.257  0.2462 -0.6347 -0.3587
    5CHTO   H15 2078   6.972   3.452   4.300 -0.1651 -0.8162  0.7199
    5CHTO    O6 2079   6.817   3.308   4.350 -0.2363  0.1348  0.0125
    5CHTO    H1 2080   6.739   3.275   4.309  0.1665  0.3522 -0.9454
    5CHTO    C3 2081   6.919   3.334   4.112  0.1413  0.5323  0.8245
    5CHTO   H16 2082   6.829   3.276   4.087  0.2712  1.2230 -1.3366
    5CHTO    N1 2083   7.029   3.234   4.119  0.3190  0.4365 -0.9551
    5CHTO    H8 2084   7.039   3.157   4.045 -2.1469  0.5700 -1.4917
    5CHTO    H9 2085   7.021   3.183   4.214 -0.1925  1.1275 -0.6178
    5CHTO    C4 2086   6.944   3.441   3.999  0.1310 -0.2564 -0.1850
    5CHTO   H17 2087   7.045   3.482   4.007  1.2265 -2.9544  0.1071
    5CHTO    O1 2088   6.848   3.552   4.015  0.7707 -0.0319 -0.5633
    5CHTO    C5 2089   6.836   3.630   4.135 -0.7337 -0.5184 -0.2903
    5CHTO   H18 2090   6.937   3.658   4.165 -0.3179 -1.9385 -0.3279
    5CHTO   C16 2091   6.753   3.758   4.116  0.1011  0.1769  0.6738
    5CHTO   O11 2092   6.825   3.872   4.065 -0.2598 -0.6095 -0.6067
    5CHTO    H5 2093   6.765   3.943   4.076  0.9934  0.4339 -0.3745
    5CHTO    O3 2094   6.920   3.385   3.869  0.0557  0.0273 -0.2605
    5CHTO    C6 2095   7.040   3.394   3.777 -0.4574  1.2862  0.1282
    5CHTO   H19 2096   7.135   3.400   3.830  0.8186 -0.3786 -1.8623
    5CHTO    C8 2097   7.049   3.263   3.693  0.0256 -0.2091 -0.3977
    5CHTO   H21 2098   6.953   3.252   3.644 -0.1607  3.9694 -1.2164
    5CHTO    O7 2099   7.072   3.157   3.790 -0.0831 -0.4308 -0.3935
    5CHTO    H2 2100   7.005   3.145   3.855 -0.2954  0.8317 -0.3629
    5CHTO   C12 2101   7.168   3.276   3.583 -0.6055 -0.2541 -0.2946
    5CHTO   H25 2102   7.265   3.283   3.636 -0.0855 -1.5775 -1.0424
    5CHTO    N3 2103   7.168   3.150   3.501  0.0560 -0.9226 -0.1502
    5CHTO   H12 2104   7.268   3.135   3.462 -0.7687 -0.3154 -2.6029
    5CHTO   H13 2105   7.106   3.165   3.414 -1.3777  2.0920  1.3162
    5CHTO   C15 2106   7.160   3.405   3.499  0.0226 -0.4784 -0.3974
    5CHTO   H28 2107   7.072   3.401   3.434  0.0411  2.1248 -0.6221
    5CHTO   O10 2108   7.294   3.432   3.412 -0.5554 -0.6086  0.0385
    5CHTO    H4 2109   7.309   3.523   3.395  1.2477 -0.7859  0.5921
    5CHTO    O5 2110   7.155   3.516   3.594 -0.4727  0.5613  0.4666
    5CHTO   C10 2111   7.040   3.519   3.684  0.1129  0.0254 -0.6646
    5CHTO   H23 2112   6.949   3.513   3.625  0.8282 -3.3147 -1.5117
    5CHTO   C17 2113   7.048   3.653   3.762 -0.4730  0.4842 -1.0289
    5CHTO   O12 2114   6.955   3.744   3.706  0.0321  0.1805 -0.2644
    5CHTO    H6 2115   7.008   3.815   3.673 -0.0312  0.2453 -0.2259
    6CHTO  H203 2116   7.154   4.969   0.648 -1.3106 -0.8638  0.2243
    6CHTO   O82 2117   7.139   5.012   0.730  0.2952 -0.1102  0.1397
    6CHTO  C123 2118   7.035   5.113   0.725 -0.6980 -0.0412  0.5186
    6CHTO  H227 2119   7.074   5.210   0.692  1.9161 -0.9658  0.7448
    6CHTO   O77 2120   6.932   5.067   0.630  0.0799  0.3809 -0.1527
    6CHTO  C118 2121   6.827   5.163   0.603 -0.0381  0.4586 -0.2442
    6CHTO  H222 2122   6.859   5.265   0.573 -0.6017  0.6789 -0.0984
    6CHTO  C125 2123   6.743   5.101   0.488  0.4684 -0.0354  0.0944
    6CHTO   O84 2124   6.655   5.203   0.439  0.0906 -1.0988 -0.1059
    6CHTO  H205 2125   6.596   5.168   0.375 -1.3944 -2.3619  1.9251
    6CHTO  C114 2126   6.749   5.183   0.734  0.6808 -0.2902 -0.2734
    6CHTO  H218 2127   6.721   5.084   0.769  2.2219 -1.0150 -1.0338
    6CHTO  C116 2128   6.842   5.232   0.855 -0.0541 -0.7738  0.0928
    6CHTO  H220 2129   6.869   5.339   0.841  2.4703 -1.3552  0.2490
    6CHTO   O79 2130   6.766   5.230   0.980  0.1095 -0.2610 -0.3674
    6CHTO  H201 2131   6.738   5.142   1.000  1.8902 -0.4596  1.3987
    6CHTO  C120 2132   6.971   5.141   0.866 -0.2345 -0.8949 -0.1086
    6CHTO  H224 2133   6.941   5.045   0.913 -4.0844 -0.1465 -0.8744
    6CHTO   N21 2134   7.065   5.207   0.964 -0.4268  0.1672  0.2746
    6CHTO  H211 2135   7.166   5.174   0.944  0.4150  2.2234  1.0561
    6CHTO  H212 2136   7.029   5.179   1.062 -1.9740  1.8959  0.2080
    6CHTO   O75 2137   6.633   5.265   0.700  0.0040  0.4232  0.6680
    6CHTO  C112 2138   6.497   5.250   0.789  0.0990  0.7724  0.3241
    6CHTO  H216 2139   6.517   5.286   0.891 -0.5807  3.4207 -0.4375
    6CHTO   O73 2140   6.456   5.112   0.787 -0.0953 -0.1601 -0.2283
    6CHTO  C113 2141   6.331   5.079   0.848  0.0855  0.2486  0.4566
    6CHTO  H217 2142   6.346   5.086   0.958 -0.0624  2.1799  0.3708
    6CHTO  C124 2143   6.317   4.929   0.825 -0.2173  0.1715  0.7760
    6CHTO   O83 2144   6.231   4.860   0.913 -0.1722  0.0514  0.2713
    6CHTO  H204 2145   6.275   4.777   0.913  1.6834  0.9615 -1.8261
    6CHTO  C109 2146   6.220   5.164   0.793  0.3873  0.1460 -0.1794
    6CHTO  H213 2147   6.219   5.139   0.686 -0.1010  0.2180 -0.1904
    6CHTO  C110 2148   6.254   5.318   0.808  0.2480 -0.0846  0.1288
    6CHTO  H214 2149   6.257   5.355   0.910  2.2790  4.0645 -1.3518
    6CHTO   O78 2150   6.149   5.390   0.746  0.2835 -0.8718  0.6749
    6CHTO  H200 2151   6.065   5.360   0.774 -0.6889  2.4283  1.5222
    6CHTO  C111 2152   6.392   5.348   0.734  0.2401  0.8840  0.7173
    6CHTO  H215 2153   6.386   5.315   0.629  0.1960  3.7421 -0.2343
    6CHTO   N19 2154   6.441   5.487   0.730 -0.6722  0.3413  0.1834
    6CHTO  H207 2155   6.479   5.520   0.635  3.4648 -1.4801  1.1049
    6CHTO  H208 2156   6.496   5.511   0.819 -0.4888  0.9366 -0.0907
    6CHTO   O74 2157   6.086   5.126   0.848  0.1764  0.3235 -0.4959
    6CHTO  C115 2158   6.070   5.130   1.015 -0.7185  0.5619  0.8033
    6CHTO  H219 2159   6.154   5.083   1.065 -0.4080 -1.0927 -1.2191
    6CHTO   O76 2160   6.063   5.280   1.081  0.2055 -0.2198 -0.9248
    6CHTO  C122 2161   5.948   5.353   1.047  0.5675  0.2011  0.5344
    6CHTO  H226 2162   5.941   5.349   0.938  1.1314  1.6927  0.4403
    6CHTO  C126 2163   5.952   5.508   1.093  0.9223  0.1822 -0.1069
    6CHTO   O85 2164   6.083   5.558   1.069  0.6480 -1.3203 -0.0757
    6CHTO  H206 2165   6.131   5.564   1.149  0.0147 -0.3077  0.2321
    6CHTO  C121 2166   5.827   5.281   1.118 -0.4911 -0.1413  0.4289
    6CHTO  H225 2167   5.809   5.338   1.212 -1.7351  0.0398  0.0904
    6CHTO   O81 2168   5.719   5.294   1.035  0.2998 -0.4603 -0.3656
    6CHTO  H202 2169   5.693   5.384   1.037  2.9126  0.3289  0.2122
    6CHTO  C119 2170   5.850   5.131   1.155  0.1875 -0.0620  0.0945
    6CHTO  H223 2171   5.904   5.130   1.250  0.5020  0.9308 -0.0624
    6CHTO  C117 2172   5.940   5.053   1.044  0.4226  0.1476  0.1362
    6CHTO  H221 2173   5.879   5.049   0.953  0.3480 -2.1886  0.2805
    6CHTO   N20 2174   5.959   4.911   1.075 -0.9347  0.6038  0.4142
    6CHTO  H209 2175   5.925   4.842   0.999  2.9232 -2.7371  1.5374
    6CHTO  H210 2176   6.057   4.880   1.107  0.4276  4.2306  0.0353
    6CHTO   O80 2177   5.694   5.041   1.200  0.3997 -0.1086  0.1162
    6CHTO  C103 2178   5.648   5.027   1.364  0.3005  0.3164 -0.8542
    6CHTO  H190 2179   5.709   4.949   1.408 -1.0030 -0.6952 -0.8259
    6CHTO  C101 2180   5.643   5.166   1.442 -0.3575 -0.2302  0.0899
    6CHTO  H188 2181   5.611   5.247   1.376 -0.0556 -0.3188 -0.1669
    6CHTO   O68 2182   5.810   5.214   1.492  0.5961  0.2096  0.3210
    6CHTO  H168 2183   5.878   5.168   1.448  1.1245  0.4652  0.8643
    6CHTO   C99 2184   5.552   5.168   1.571  0.3332  0.1137  0.0318
    6CHTO  H186 2185   5.598   5.116   1.657 -2.1328 -1.6234  0.3587
    6CHTO   N17 2186   5.518   5.305   1.622  0.3313 -0.0363  0.0457
    6CHTO  H174 2187   5.488   5.374   1.544  0.5553  1.5278  1.3146
    6CHTO  H175 2188   5.599   5.341   1.683 -0.9785 -0.2916  1.9829
    6CHTO   C97 2189   5.420   5.097   1.539  0.0405  0.1057 -0.5913
    6CHTO  H184 2190   5.360   5.157   1.470  1.1942 -0.9487 -2.5487
    6CHTO   O64 2191   5.450   4.965   1.486 -0.2248 -0.2157 -0.3530
    6CHTO  C104 2192   5.509   4.968   1.363 -0.3544 -0.2427 -0.1818
    6CHTO  H191 2193   5.444   5.029   1.300  0.5637  1.5066  0.5034
    6CHTO  C108 2194   5.521   4.824   1.303  0.3702  0.2633  1.1167
    6CHTO   O71 2195   5.391   4.783   1.257  0.1333 -0.3514  0.4013
    6CHTO  H171 2196   5.384   4.830   1.176 -0.9982  0.4481  0.9557
    6CHTO   O62 2197   5.339   5.064   1.654  0.1841  0.0315 -0.0460
    6CHTO   C91 2198   5.198   5.070   1.634 -1.0555 -0.6695 -0.2952
    6CHTO  H178 2199   5.157   5.171   1.633 -0.5212 -0.4481  0.3637
    6CHTO   C92 2200   5.133   4.998   1.763 -0.1260  0.4603  1.0596
    6CHTO  H179 2201   5.181   5.045   1.850 -0.4950  0.3957  1.2953
    6CHTO   O66 2202   4.990   5.016   1.768 -0.2517 -0.3091 -0.4359
    6CHTO  H166 2203   4.972   5.105   1.791 -0.4314 -0.6728  0.8745
    6CHTO   C93 2204   5.161   4.845   1.760 -0.1449  0.1736 -0.2937
    6CHTO  H180 2205   5.080   4.793   1.814  1.5596 -0.0100  2.1749
    6CHTO   N16 2206   5.285   4.809   1.836  0.6782  1.0133  0.3180
    6CHTO  H172 2207   5.292   4.863   1.930 -1.3048  1.2136  0.3571
    6CHTO  H173 2208   5.374   4.820   1.776  2.4393 -0.9052  2.4937
    6CHTO   C94 2209   5.164   4.787   1.611  0.2259 -0.6082  0.5001
    6CHTO  H181 2210   5.266   4.781   1.574  0.2547  0.5992  0.3660
    6CHTO   O61 2211   5.090   4.867   1.514 -0.5307  0.1920 -0.2245
    6CHTO   C95 2212   5.142   4.997   1.499 -0.0257 -0.0178  0.0490
    6CHTO  H182 2213   5.224   4.992   1.427  0.6163 -1.9687  0.8719
    6CHTO  C106 2214   5.038   5.077   1.421  0.8347 -0.4270 -0.0925
    6CHTO   O69 2215   5.034   5.022   1.288  0.5262  0.3268 -0.1177
    6CHTO  H169 2216   5.116   5.023   1.243  1.1322 -1.3430  0.9287
    6CHTO   O63 2217   5.100   4.652   1.603 -0.5126  0.1848  0.1036
    6CHTO   C96 2218   5.173   4.558   1.514 -0.4808  0.0872 -0.4168
    6CHTO  H183 2219   5.276   4.592   1.505 -0.3982 -0.2672 -0.8157
    6CHTO   C98 2220   5.120   4.545   1.371  0.3997  0.6131 -0.0607
    6CHTO  H185 2221   5.014   4.515   1.377  0.6491 -0.3725 -0.6007
    6CHTO   O67 2222   5.120   4.675   1.300  0.8534  0.0710 -0.0646
    6CHTO  H167 2223   5.054   4.728   1.343  0.2269 -0.0522 -0.8579
    6CHTO  C102 2224   5.198   4.435   1.286  0.1115 -0.1850  0.6649
    6CHTO  H189 2225   5.290   4.485   1.251 -0.5883 -0.0180 -1.0174
    6CHTO   N18 2226   5.130   4.383   1.166 -0.2960  0.2633 -0.1459
    6CHTO  H176 2227   5.140   4.456   1.087  0.9609  0.5274  0.2419
    6CHTO  H177 2228   5.024   4.371   1.180 -0.4116  0.0034 -1.2296
    6CHTO  C105 2229   5.246   4.311   1.370  0.1805 -0.7625  0.0992
    6CHTO  H192 2230   5.213   4.220   1.318 -2.7336  0.3352 -0.0894
    6CHTO   O65 2231   5.191   4.297   1.498 -0.3696  0.5843  0.6152
    6CHTO  C100 2232   5.198   4.414   1.580 -0.1131 -0.4125 -0.0840
    6CHTO  H187 2233   5.127   4.390   1.661  0.4302 -1.1672  0.1627
    6CHTO  C107 2234   5.337   4.414   1.656 -0.2264 -0.2585 -0.5315
    6CHTO   O70 2235   5.355   4.295   1.735  0.5370  0.6091  0.2016
    6CHTO  H170 2236   5.281   4.289   1.792  0.5534 -1.7208  0.0235
    6CHTO   O57 2237   5.408   4.317   1.371  0.2149  0.5764 -0.2026
    6CHTO   C85 2238   5.499   4.229   1.308  0.4506 -0.0543 -0.2040
    6CHTO  H157 2239   5.460   4.226   1.204  1.2444 -1.7541 -0.4837
    6CHTO   C83 2240   5.477   4.085   1.380  0.8859  0.2233  0.2012
    6CHTO  H155 2241   5.372   4.059   1.369  1.2254 -1.0359 -0.0684
    6CHTO   O56 2242   5.478   4.103   1.531  0.0451 -0.6711  0.3910
    6CHTO  H135 2243   5.561   4.138   1.559 -1.0179  0.3944  2.3262
    6CHTO   C81 2244   5.582   3.985   1.314 -0.2054  1.0034  0.1695
    6CHTO  H153 2245   5.569   3.989   1.206  0.1926 -1.9640 -0.0106
    6CHTO   N14 2246   5.562   3.846   1.353 -0.6471 -0.1990 -0.3278
    6CHTO  H141 2247   5.620   3.779   1.292  0.3802  0.9168 -0.5862
    6CHTO  H142 2248   5.461   3.811   1.359  0.1816 -2.2747  3.1506
    6CHTO   C79 2249   5.729   4.032   1.344 -0.3496 -0.4672 -0.2121
    6CHTO  H151 2250   5.794   3.957   1.299 -1.1462 -1.5692  0.4275
    6CHTO   O52 2251   5.752   4.159   1.285 -0.0305 -0.1166  0.2581
    6CHTO   C86 2252   5.658   4.269   1.317 -0.3776  0.3062  0.3033
    6CHTO  H158 2253   5.685   4.305   1.418  1.2603 -0.6327  0.2213
    6CHTO   C90 2254   5.689   4.393   1.221 -0.1146  0.6728 -0.2881
    6CHTO   O60 2255   5.744   4.354   1.096  0.2648 -0.6612 -0.1708
    6CHTO  H138 2256   5.797   4.418   1.053 -0.8363 -0.2044 -0.8511
    6CHTO   O50 2257   5.770   4.030   1.484  0.3584  0.2949  0.6585
    6CHTO   C73 2258   5.864   4.050   1.590  0.0542  0.4543 -0.3719
    6CHTO  H145 2259   5.921   3.957   1.607 -0.7881  0.0223  0.1475
    6CHTO   C74 2260   5.781   4.075   1.725 -0.2358 -0.3821 -0.0843
    6CHTO  H146 2261   5.700   4.001   1.727  2.0466 -3.0788 -2.3977
    6CHTO   O54 2262   5.871   4.042   1.835 -0.7022 -0.2862  0.5809
    6CHTO  H133 2263   5.843   4.083   1.914  1.4921 -0.9868  1.7575
    6CHTO   C75 2264   5.725   4.229   1.726 -0.5574  0.7021 -0.7455
    6CHTO  H147 2265   5.644   4.237   1.653  0.7015  2.5107 -1.9834
    6CHTO   N13 2266   5.670   4.273   1.853 -0.2318 -0.0462 -0.2078
    6CHTO  H139 2267   5.567   4.301   1.838 -1.2614 -2.7566  1.3977
    6CHTO  H140 2268   5.733   4.349   1.897 -1.8670  0.3865  1.4338
    6CHTO   C76 2269   5.835   4.333   1.676 -0.0022 -0.4203 -0.1406
    6CHTO  H148 2270   5.907   4.348   1.757  1.1466  1.0223 -1.4074
    6CHTO   O49 2271   5.901   4.291   1.560 -0.1016 -0.2039 -0.0437
    6CHTO   C77 2272   5.964   4.165   1.568  0.2770 -0.2237 -1.2640
    6CHTO  H149 2273   6.046   4.153   1.639 -0.2913 -1.6764 -0.8339
    6CHTO   C88 2274   6.040   4.144   1.436  0.0933  0.5203 -0.2678
    6CHTO   O58 2275   6.164   4.234   1.421 -0.0771 -0.2105 -0.0526
    6CHTO  H136 2276   6.205   4.226   1.337 -0.3574 -0.5718 -0.1538
    6CHTO   O51 2277   5.756   4.490   1.628 -0.3184 -0.1867  0.0805
    6CHTO   C78 2278   5.839   4.623   1.661 -0.3132 -0.1477  0.5672
    6CHTO  H150 2279   5.945   4.592   1.673 -0.8092 -2.1530 -0.1440
    6CHTO   C80 2280   5.790   4.687   1.792 -0.1548  0.0816 -0.0334
    6CHTO  H152 2281   5.685   4.720   1.776 -0.3802 -0.3547  0.5465
    6CHTO   O55 2282   5.798   4.592   1.898 -0.2304 -0.0362  0.1124
    6CHTO  H134 2283   5.749   4.513   1.886 -1.0290  0.4544  0.1229
    6CHTO   C84 2284   5.873   4.823   1.822 -0.5146 -0.6976 -0.1186
    6CHTO  H156 2285   5.977   4.805   1.852 -0.2964  1.8975  0.8060
    6CHTO   N15 2286   5.818   4.910   1.936 -0.1349  0.1136 -0.4773
    6CHTO  H143 2287   5.858   4.878   2.030 -2.8771 -0.3399  0.5895
    6CHTO  H144 2288   5.840   5.012   1.916 -2.1404  0.4111 -1.2851
    6CHTO   C87 2289   5.898   4.910   1.697 -0.0527 -0.1643  0.1314
    6CHTO  H159 2290   5.820   4.985   1.680  1.8968  1.9304  0.2664
    6CHTO   O53 2291   5.915   4.834   1.559  0.1159 -0.1280  0.1929
    6CHTO   C82 2292   5.832   4.720   1.539  0.4301  0.8187  0.3388
    6CHTO  H154 2293   5.733   4.760   1.518  0.9202  1.6838 -0.3331
    6CHTO   C89 2294   5.887   4.654   1.410  0.1751  0.1523 -0.6885
    6CHTO   O59 2295   6.006   4.575   1.431 -0.5549  0.3730  0.1220
    6CHTO  H137 2296   5.986   4.500   1.484  0.5268  0.0495  0.0925
    6CHTO   O45 2297   6.035   5.007   1.708  0.2957  0.3748 -0.6033
    6CHTO   C67 2298   6.158   4.945   1.667 -0.3522 -0.0608 -0.3928
    6CHTO  H124 2299   6.158   4.839   1.692  0.5604 -0.2547 -1.2129
    6CHTO   C65 2300   6.187   4.968   1.513  0.0767 -0.0270  0.1583
    6CHTO  H122 2301   6.097   4.995   1.457 -0.9390  0.2233  1.8790
    6CHTO   O44 2302   6.245   4.841   1.462  0.3483 -0.0669  0.7312
    6CHTO  H102 2303   6.177   4.776   1.458 -1.2190  1.5131  1.3192
    6CHTO   C63 2304   6.280   5.092   1.493 -0.3913 -0.2449  0.6223
    6CHTO  H120 2305   6.235   5.173   1.550  0.2093  0.8729 -0.4881
    6CHTO   N11 2306   6.264   5.152   1.356  0.3476  0.1482 -0.6844
    6CHTO  H108 2307   6.180   5.218   1.362  0.4161  0.0817  1.4757
    6CHTO  H109 2308   6.356   5.192   1.318 -1.5089  2.6971 -2.6067
    6CHTO   C61 2309   6.420   5.059   1.552 -0.7990 -0.5394 -0.7074
    6CHTO  H118 2310   6.484   5.148   1.566  0.0959 -1.0443 -1.4849
    6CHTO   O40 2311   6.411   5.000   1.680 -0.1108 -0.1599  0.4987
    6CHTO   C68 2312   6.281   5.011   1.755 -0.6878 -0.3383  0.2399
    6CHTO  H125 2313   6.258   5.119   1.769  0.6823 -0.5330  4.4983
    6CHTO   C72 2314   6.304   4.946   1.900  0.0490  0.1348  0.2744
    6CHTO   O48 2315   6.342   4.806   1.875 -0.0221  0.4169 -0.2849
    6CHTO  H105 2316   6.433   4.787   1.866 -0.6207 -2.2088 -1.1298
    6CHTO   O38 2317   6.483   4.957   1.467  0.2661 -0.1213 -0.0807
    6CHTO   C55 2318   6.603   4.983   1.391  0.4043  0.0815 -0.7368
    6CHTO  H112 2319   6.612   5.093   1.388  0.6298  0.0325 -3.1048
    6CHTO   C56 2320   6.586   4.925   1.250 -0.3226 -0.3953 -0.2212
    6CHTO  H113 2321   6.531   4.830   1.262 -1.0904  0.1331  0.4676
    6CHTO   O42 2322   6.496   5.004   1.166 -0.4595 -0.1306  0.0473
    6CHTO  H100 2323   6.459   4.953   1.096  0.1265  2.1604 -2.0072
    6CHTO   C57 2324   6.721   4.905   1.171 -0.0176 -0.6944  0.0059
    6CHTO  H114 2325   6.750   5.004   1.139  0.6606 -0.7390  0.4822
    6CHTO   N10 2326   6.704   4.830   1.048 -0.0880  0.6785  0.0413
    6CHTO  H106 2327   6.655   4.736   1.070 -0.1765  1.0485  1.4506
    6CHTO  H107 2328   6.802   4.805   1.011  0.0765  0.6699  0.4802
    6CHTO   C58 2329   6.830   4.852   1.269 -0.3398  0.0612  0.6656
    6CHTO  H115 2330   6.805   4.749   1.299 -0.9975  0.1264  0.3503
    6CHTO   O37 2331   6.842   4.930   1.387  0.1122  0.6537 -0.1689
    6CHTO   C59 2332   6.726   4.927   1.471  0.1901 -0.0941 -0.0542
    6CHTO  H116 2333   6.705   4.822   1.494  1.7902 -0.2439  0.7804
    6CHTO   C70 2334   6.759   4.992   1.607 -0.0889  0.0639 -1.1305
    6CHTO   O46 2335   6.859   4.917   1.675  0.2770 -0.0028 -0.3345
    6CHTO  H103 2336   6.819   4.888   1.755  0.2867 -1.0306 -0.6961
    6CHTO   O39 2337   6.973   4.841   1.179  0.1673 -0.1216 -0.2850
    6CHTO   C60 2338   7.046   4.728   1.226 -0.1078  0.1818 -0.3851
    6CHTO  H117 2339   7.045   4.724   1.335 -2.2304  2.6527 -0.2740
    6CHTO   C62 2340   6.982   4.587   1.182 -0.1252 -0.2033 -0.6916
    6CHTO  H119 2341   6.877   4.578   1.217 -0.9558  1.4226 -2.6584
    6CHTO   O43 2342   6.983   4.575   1.039  0.5366  0.0541  0.1430
    6CHTO  H101 2343   6.974   4.484   1.015  0.9508  0.7839 -3.0333
    6CHTO   C66 2344   7.065   4.468   1.262 -0.0733 -0.1478 -0.3662
    6CHTO  H123 2345   7.055   4.484   1.370 -0.3354 -1.3253 -0.2051
    6CHTO   N12 2346   7.018   4.332   1.230  0.5029 -0.5907  1.0270
    6CHTO  H110 2347   6.979   4.289   1.321  1.8550 -0.7328  1.5383
    6CHTO  H111 2348   6.942   4.336   1.153 -0.4745  1.6615  2.0871
    6CHTO   C69 2349   7.217   4.480   1.235  0.7890  0.0239 -0.0693
    6CHTO  H126 2350   7.247   4.459   1.131 -1.4140 -0.6874 -0.5728
    6CHTO   O41 2351   7.272   4.637   1.269  0.1064 -0.5958 -0.2353
    6CHTO   C64 2352   7.196   4.737   1.187  0.3962  0.7626 -0.5495
    6CHTO  H121 2353   7.199   4.721   1.077 -3.0892  4.0358 -1.2140
    6CHTO   C71 2354   7.248   4.882   1.213  0.4512 -0.4843  0.3207
    6CHTO   O47 2355   7.381   4.890   1.159  0.2136  0.6616  0.1388
    6CHTO  H104 2356   7.379   4.876   1.066 -1.4881 -1.2295  0.4105
    6CHTO   O34 2357   7.296   4.369   1.331  0.0672 -0.0860 -0.1521
    6CHTO   C49 2358   7.449   4.317   1.272 -0.3678  0.5763 -0.6668
    6CHTO   H91 2359   7.430   4.250   1.188  0.5350 -0.9669  0.3450
    6CHTO   C47 2360   7.514   4.242   1.395 -0.3873  0.4659 -0.5131
    6CHTO   H89 2361   7.600   4.183   1.359 -0.3592 -0.3418  0.8481
    6CHTO   O33 2362   7.427   4.147   1.448  0.4717 -0.3191 -0.2113
    6CHTO   H70 2363   7.440   4.060   1.415  1.3929 -0.3954  0.3347
    6CHTO   C45 2364   7.549   4.346   1.512  0.8535  0.2197  0.8329
    6CHTO   H87 2365   7.467   4.351   1.586 -1.0698  2.0091 -1.3559
    6CHTO    N8 2366   7.666   4.297   1.585 -0.1220 -0.5350  0.0870
    6CHTO   H75 2367   7.644   4.193   1.602 -0.2137 -0.4162  0.7260
    6CHTO   H76 2368   7.673   4.360   1.673 -2.0385  2.3745 -1.7473
    6CHTO   C43 2369   7.554   4.495   1.461 -0.2900 -0.2286  0.5870
    6CHTO   H85 2370   7.449   4.524   1.456 -0.0748  0.3398 -0.9135
    6CHTO   O29 2371   7.617   4.503   1.335 -0.0638  0.0143 -0.0093
    6CHTO   C50 2372   7.546   4.435   1.231 -0.1493  0.6735  0.0490
    6CHTO   H92 2373   7.490   4.513   1.178  0.6431  1.0354 -0.2657
    6CHTO   C54 2374   7.650   4.395   1.120 -0.4696 -0.6658 -0.0833
    6CHTO   O36 2375   7.742   4.292   1.161  0.0565 -0.4364 -0.2158
    6CHTO   H72 2376   7.822   4.300   1.114  0.0349  0.9668 -0.0319
    6CHTO   O27 2377   7.623   4.572   1.560 -0.1752 -0.0648  0.2241
    6CHTO   C37 2378   7.680   4.704   1.575 -0.2024 -0.0604 -0.5961
    6CHTO   H79 2379   7.770   4.725   1.515 -1.0372  3.3127 -0.7510
    6CHTO   C38 2380   7.579   4.805   1.517 -0.5398 -0.0600  0.1988
    6CHTO   H80 2381   7.478   4.790   1.559 -0.8789 -1.5742 -1.1184
    6CHTO   O31 2382   7.577   4.792   1.367  0.1166  0.3361 -0.0623
    6CHTO   H68 2383   7.509   4.738   1.332  0.4025  0.0107 -0.1219
    6CHTO   C39 2384   7.623   4.953   1.547 -0.6997 -0.0411 -0.4719
    6CHTO   H81 2385   7.713   4.962   1.487  0.1760 -0.1994  0.7947
    6CHTO    N7 2386   7.522   5.058   1.506  0.3695  0.5017  0.3475
    6CHTO   H73 2387   7.454   5.011   1.437  0.4955 -0.2657  0.7414
    6CHTO   H74 2388   7.577   5.139   1.460 -1.4162 -0.2262 -3.2314
    6CHTO   C40 2389   7.654   4.959   1.704 -0.2389 -0.0210 -0.1569
    6CHTO   H82 2390   7.566   4.960   1.769  1.6893  0.2509  2.5440
    6CHTO   O26 2391   7.749   4.867   1.750 -0.5264  0.5091 -0.2989
    6CHTO   C41 2392   7.709   4.726   1.725  0.3693 -0.8940  0.3707
    6CHTO   H83 2393   7.615   4.708   1.780 -0.5560 -0.0242 -0.8736
    6CHTO   C52 2394   7.821   4.629   1.773  0.3055 -0.2742  0.1139
    6CHTO   O35 2395   7.868   4.646   1.924 -0.4525  0.1116  0.7234
    6CHTO   H71 2396   7.875   4.562   1.965  1.2431 -0.4337 -0.6361
    6CHTO   O28 2397   7.724   5.082   1.736 -0.1187  0.7240  0.0767
    6CHTO   C42 2398   7.703   5.154   1.860 -0.1437 -0.3496  0.0572
    6CHTO   H84 2399   7.799   5.200   1.880 -1.6015  1.0196  4.7338
    6CHTO   C44 2400   7.672   5.081   1.996 -0.1731  0.3583 -0.3011
    6CHTO   H86 2401   7.583   5.019   1.986 -0.3895  0.6663 -0.2721
    6CHTO   O32 2402   7.782   4.987   2.014 -0.3664 -0.5714  0.1885
    6CHTO   H69 2403   7.857   5.043   2.018 -0.6495 -0.2358  0.9883
    6CHTO   C48 2404   7.645   5.183   2.115  0.1310 -0.3937 -0.1082
    6CHTO   H90 2405   7.742   5.230   2.133  0.2163 -0.3900 -0.5653
    6CHTO    N9 2406   7.608   5.102   2.236 -1.0273 -0.1101  0.7656
    6CHTO   H77 2407   7.664   5.146   2.317  1.1264  1.5470 -1.5521
    6CHTO   H78 2408   7.620   4.996   2.220  1.8151  0.5042 -1.5383
    6CHTO   C51 2409   7.545   5.298   2.080  0.8307 -0.0979 -0.4639
    6CHTO   H93 2410   7.447   5.263   2.048 -0.2214  0.9680  1.5067
    6CHTO   O30 2411   7.609   5.377   1.977 -0.1015  0.3627 -0.0590
    6CHTO   C46 2412   7.606   5.275   1.845 -0.1671 -0.2348 -0.0193
    6CHTO   H88 2413   7.503   5.240   1.835  0.0581 -0.3739 -2.0377
    6CHTO   C53 2414   7.632   5.349   1.725 -0.8637 -0.3213  0.4844
    6CHTO   O72 2415   7.568   5.481   1.735  0.4801  0.5503 -0.3322
    6CHTO  H199 2416   7.623   5.518   1.801  0.4864 -2.2414  1.3276
    6CHTO   O22 2417   7.532   5.400   2.181 -0.5159  0.7410 -0.3318
    6CHTO   C31 2418   7.421   5.493   2.197  0.0967 -0.9962 -0.1163
    6CHTO   H59 2419   7.427   5.535   2.299  0.2925 -0.1469 -0.4780
    6CHTO   C29 2420   7.419   5.612   2.099 -0.5692 -0.5056  0.9090
    6CHTO   H57 2421   7.428   5.586   1.992 -2.1871  2.4217  0.0145
    6CHTO   O21 2422   7.539   5.695   2.113 -0.7998  0.0980  0.0244
    6CHTO   H37 2423   7.615   5.640   2.118  0.6329  2.1704  1.6197
    6CHTO   C27 2424   7.286   5.701   2.120 -0.2035 -0.7178 -0.0843
    6CHTO   H55 2425   7.296   5.761   2.211  0.2998  1.2112 -1.3633
    6CHTO    N5 2426   7.275   5.806   2.016  0.1821 -0.2850  1.0074
    6CHTO   H43 2427   7.363   5.830   1.958 -0.4309 -0.9928 -0.2412
    6CHTO   H44 2428   7.202   5.774   1.943 -0.7481 -2.2564  2.7446
    6CHTO   C25 2429   7.155   5.613   2.125  0.3026 -0.6251 -0.2567
    6CHTO   H53 2430   7.129   5.586   2.021  1.4856 -0.9281 -0.4755
    6CHTO   O17 2431   7.170   5.497   2.216  0.3704 -0.3902 -0.2361
    6CHTO   C32 2432   7.283   5.413   2.201 -0.3019  0.0587 -0.4479
    6CHTO   H60 2433   7.275   5.358   2.108 -0.7386 -1.5071  0.4967
    6CHTO   C36 2434   7.286   5.316   2.331  0.2635  0.0071  0.1873
    6CHTO   O25 2435   7.293   5.397   2.451  0.3398 -0.2698 -0.2884
    6CHTO   H40 2436   7.376   5.396   2.494 -0.0131 -2.5065  0.4073
    6CHTO   O15 2437   7.028   5.691   2.181  0.1180 -0.3708  0.0957
    6CHTO   C19 2438   6.952   5.678   2.306  0.5271  0.5816  0.4682
    6CHTO   H47 2439   6.943   5.569   2.316 -1.2091  0.5220 -1.5138
    6CHTO   C20 2440   7.019   5.733   2.432  0.3612 -0.1568  0.0003
    6CHTO   H48 2441   7.037   5.841   2.422 -3.5399  0.5258 -0.5289
    6CHTO   O19 2442   7.140   5.658   2.442 -0.3724  0.0324 -0.2285
    6CHTO   H35 2443   7.207   5.709   2.483 -0.0604  0.6728 -1.5081
    6CHTO   C21 2444   6.935   5.719   2.563 -0.1418  0.0806  0.5533
    6CHTO   H49 2445   6.937   5.614   2.593 -1.2243 -0.6219 -1.7101
    6CHTO    N4 2446   6.991   5.785   2.683  0.0822  0.2625 -0.3735
    6CHTO   H41 2447   7.039   5.877   2.654  1.8383 -1.2574 -2.4403
    6CHTO   H42 2448   7.058   5.714   2.730  0.2074  0.3840 -0.3700
    6CHTO   C22 2449   6.789   5.764   2.529 -0.0202 -0.3933  0.4560
    6CHTO   H50 2450   6.811   5.870   2.520  1.7767 -0.6338  1.6954
    6CHTO   O14 2451   6.737   5.706   2.409 -0.2445  0.1153  0.0814
    6CHTO   C23 2452   6.805   5.729   2.289 -0.1369 -0.4257  0.0441
    6CHTO   H51 2453   6.800   5.836   2.261  0.0679 -0.2195  0.7867
    6CHTO   C34 2454   6.733   5.650   2.186 -0.3131 -0.3272  0.3584
    6CHTO   O23 2455   6.673   5.728   2.084 -0.2322 -0.4818 -0.0328
    6CHTO   H38 2456   6.733   5.755   2.017 -0.8316 -1.9703 -1.1897
    6CHTO   O16 2457   6.704   5.720   2.634 -0.2501 -0.5314  0.3953
    6CHTO   C24 2458   6.584   5.836   2.656  0.5538 -0.2889 -0.2320
    6CHTO   H52 2459   6.574   5.901   2.569  1.6682 -1.6893 -1.4324
    6CHTO   C26 2460   6.609   5.907   2.794  0.4452  0.0272 -0.1454
    6CHTO   H54 2461   6.643   5.831   2.867  1.0114 -0.0269 -0.4687
    6CHTO   O20 2462   6.729   5.990   2.781  0.3566  0.4626  0.1392
    6CHTO   H36 2463   6.777   5.981   2.862 -0.0299 -0.8848  0.2208
    6CHTO   C30 2464   6.501   5.996   2.855 -0.5270 -0.4087 -1.3156
    6CHTO   H58 2465   6.495   6.096   2.809  1.7735 -1.2290 -3.5355
    6CHTO    N6 2466   6.524   6.011   3.003 -0.4935 -0.2592 -0.0117
    6CHTO   H45 2467   6.614   6.069   3.015  0.2361 -1.8524  2.5830
    6CHTO   H46 2468   6.440   6.065   3.045  0.2261  1.6430 -0.9881
    6CHTO   C33 2469   6.366   5.930   2.828  0.7262 -0.3124  0.4869
    6CHTO   H61 2470   6.348   5.852   2.903 -1.0473 -0.6388 -0.2577
    6CHTO   O18 2471   6.354   5.871   2.695  0.2345 -0.3191  0.2841
    6CHTO   C28 2472   6.448   5.769   2.671  0.5613  0.4419 -0.3795
    6CHTO   H56 2473   6.452   5.694   2.750  2.5602  0.9440  0.0112
    6CHTO   C35 2474   6.411   5.690   2.546 -0.1747 -0.1558 -0.5713
    6CHTO   O24 2475   6.390   5.779   2.435 -0.2369 -0.5384 -0.6146
    6CHTO   H39 2476   6.343   5.733   2.369 -0.1534 -1.8818  0.2467
    6CHTO    O9 2477   6.256   6.027   2.853  0.3947 -0.2981 -0.2893
    6CHTO   C13 2478   6.102   5.957   2.854 -0.6825 -1.6249 -0.7587
    6CHTO   H26 2479   6.115   5.853   2.890  0.6681 -1.4250 -0.6431
    6CHTO   C11 2480   6.031   5.962   2.708 -0.2803  0.3085 -0.0461
    6CHTO   H24 2481   6.101   5.918   2.634 -1.7782 -0.8824 -0.7735
    6CHTO    O8 2482   6.008   6.101   2.677  0.9607  0.3099  0.1016
    6CHTO    H3 2483   6.092   6.135   2.653  1.1079  1.9334  2.7235
    6CHTO    C9 2484   5.898   5.885   2.712  0.6014  0.9122 -0.1787
    6CHTO   H22 2485   5.929   5.782   2.733 -2.5666 -0.0929 -0.1959
    6CHTO    N2 2486   5.830   5.876   2.580  0.0023  0.1555  0.0423
    6CHTO   H10 2487   5.731   5.915   2.602 -0.8128 -1.7754 -0.0615
    6CHTO   H11 2488   5.875   5.941   2.507 -0.0075  0.3069  0.1706
    6CHTO    C7 2489   5.814   5.930   2.839 -0.2441 -0.3169 -0.3985
    6CHTO   H20 2490   5.812   5.849   2.915  0.5304 -0.0364 -0.0681
    6CHTO    O4 2491   5.863   6.048   2.907 -0.1876  0.2741 -0.6748
    6CHTO   C14 2492   5.997   6.026   2.962  0.5299  0.0510  0.2030
    6CHTO   H27 2493   5.984   5.957   3.047 -0.0351 -3.1706 -2.4086
    6CHTO   C18 2494   6.060   6.153   3.015 -0.0711  0.1019  0.6445
    6CHTO   O13 2495   6.002   6.186   3.140  0.2218  0.7322 -0.0211
    6CHTO    H7 2496   6.064   6.232   3.193  0.0023  0.9582  0.0397
    6CHTO    O2 2497   5.647   5.961   2.804 -0.2400  0.8988 -0.4996
    6CHTO    C1 2498   5.530   5.919   2.878  0.4052 -0.2384 -0.3013
    6CHTO   H14 2499   5.438   5.971   2.845  0.9268  0.2413 -1.0541
    6CHTO    C2 2500   5.543   5.956   3.028  0.1861 -0.0895  0.6242
    6CHTO   H15 2501   5.638   5.909   3.060  1.0755  1.9924  1.1646
    6CHTO    O6 2502   5.556   6.096   3.030  0.8370  0.5543 -0.2368
    6CHTO    H1 2503   5.470   6.128   3.011  0.5566 -0.4447 -0.6681
    6CHTO    C3 2504   5.419   5.898   3.116 -0.0602  0.3282 -0.1665
    6CHTO   H16 2505   5.326   5.945   3.081 -0.2015 -1.4647 -2.3829
    6CHTO    N1 2506   5.437   5.930   3.263 -0.7113  0.4713  0.4165
    6CHTO    H8 2507   5.346   5.951   3.317 -0.5129  2.3973  0.0456
    6CHTO    H9 2508   5.501   6.017   3.270 -0.9710  0.7182 -0.2647
    6CHTO    C4 2509   5.400   5.747   3.087  0.0494  0.1093  0.1483
    6CHTO   H17 2510   5.490   5.697   3.123  1.0602  2.3208  0.7450
    6CHTO    O1 2511   5.401   5.722   2.945 -0.3107 -0.1763 -0.5179
    6CHTO    C5 2512   5.507   5.768   2.861 -0.5372 -0.3248  0.1175
    6CHTO   H18 2513   5.599   5.713   2.883  0.1678  1.5444  1.9742
    6CHTO   C16 2514   5.463   5.737   2.712  0.2800 -0.3121 -0.5878
    6CHTO   O11 2515   5.357   5.826   2.674  0.1714  0.9486  0.0408
    6CHTO    H5 2516   5.307   5.779   2.611 -0.2378 -0.6458  1.5062
    6CHTO    O3 2517   5.277   5.696   3.137 -0.5506  0.6391 -0.0625
    6CHTO    C6 2518   5.277   5.552   3.180  0.6035 -0.3839  0.4995
    6CHTO   H19 2519   5.367   5.499   3.152 -0.2271 -2.1996  1.2166
    6CHTO    C8 2520   5.259   5.539   3.331  0.3335 -0.5241 -0.5966
    6CHTO   H21 2521   5.172   5.597   3.361  0.8695  1.1966 -2.3174
    6CHTO    O7 2522   5.374   5.601   3.396  0.1801 -0.0993  0.6184
    6CHTO    H2 2523   5.381   5.577   3.487  0.1314  0.7756  0.8495
    6CHTO   C12 2524   5.239   5.386   3.364 -0.4563 -0.1193 -0.5987
    6CHTO   H25 2525   5.337   5.338   3.342  0.2021  0.5559  0.7782
    6CHTO    N3 2526   5.218   5.363   3.506  0.2426  0.4575 -0.3404
    6CHTO   H12 2527   5.135   5.418   3.549  0.2462 -0.2977  0.6514
    6CHTO   H13 2528   5.308   5.369   3.566 -0.9555  3.8420  1.2557
    6CHTO   C15 2529   5.127   5.325   3.269 -0.6372 -0.9720  0.1206
    6CHTO   H28 2530   5.026   5.356   3.296 -0.3480  0.8179 -0.7630
    6CHTO   O10 2531   5.117   5.168   3.297  0.2612 -0.3761  0.1005
    6CHTO    H4 2532   5.180   5.152   3.364  0.8554  1.3499 -0.0196
    6CHTO    O5 2533   5.153   5.342   3.129 -0.5610  0.1515  0.0761
    6CHTO   C10 2534   5.158   5.486   3.100 -0.3254  0.1516  0.0931
    6CHTO   H23 2535   5.064   5.529   3.136  0.2900 -0.0918  2.0641
    6CHTO   C17 2536   5.167   5.507   2.947  0.3443 -0.1679  0.3519
    6CHTO   O12 2537   5.069   5.432   2.878 -0.4880  0.6443 -0.1879
    6CHTO    H6 2538   5.000   5.495   2.865  0.1957  2.0752  2.6200
    7CHTO  H203 2539   5.396   2.537   3.542  2.3775  0.4546  0.0340
    7CHTO   O82 2540   5.401   2.630   3.553 -0.1346  0.6543 -0.2760
    7CHTO  C123 2541   5.527   2.661   3.500 -0.4384 -0.1993  0.5930
    7CHTO  H227 2542   5.526   2.631   3.395  0.3935  1.9899 -0.0648
    7CHTO   O77 2543   5.545   2.808   3.517  0.1196 -0.0861  0.0571
    7CHTO  C118 2544   5.659   2.863   3.447 -0.0872 -0.4952 -1.1179
    7CHTO  H222 2545   5.674   2.831   3.343 -1.2306  0.6582 -1.6534
    7CHTO  C125 2546   5.648   3.027   3.437  1.5320  0.7765  0.1025
    7CHTO   O84 2547   5.626   3.099   3.555 -0.2204 -0.0415  0.1223
    7CHTO  H205 2548   5.701   3.143   3.590 -0.6615  1.1087 -0.3636
    7CHTO  C114 2549   5.772   2.821   3.537 -0.0322  0.3082  0.4176
    7CHTO  H218 2550   5.752   2.842   3.642  4.2931 -0.7511  1.5488
    7CHTO  C116 2551   5.782   2.667   3.533 -0.4094 -0.2073  0.1329
    7CHTO  H220 2552   5.818   2.641   3.431 -0.6396  0.4581 -0.1190
    7CHTO   O79 2553   5.877   2.619   3.626  0.4592  1.0190  0.0684
    7CHTO  H201 2554   5.851   2.627   3.715  1.4055 -2.1428  0.6977
    7CHTO  C120 2555   5.643   2.589   3.569 -0.8294 -0.3722  0.1906
    7CHTO  H224 2556   5.627   2.612   3.677 -2.1887  0.5410 -0.1879
    7CHTO   N21 2557   5.653   2.446   3.548 -0.1810  0.3765  0.0967
    7CHTO  H211 2558   5.594   2.396   3.624  0.4756 -0.0829  0.3134
    7CHTO  H212 2559   5.631   2.415   3.447  1.1116 -0.3236  0.0142
    7CHTO   O75 2560   5.882   2.896   3.483  0.6850 -0.1622  0.1406
    7CHTO  C112 2561   6.019   2.905   3.567  0.3637  0.1086 -0.6657
    7CHTO  H216 2562   6.031   2.812   3.624  0.7776 -0.0797 -1.0516
    7CHTO   O73 2563   6.021   3.023   3.648 -1.1394 -0.9155 -0.1022
    7CHTO  C113 2564   6.127   3.016   3.742 -0.1798  0.3086 -0.1341
    7CHTO  H217 2565   6.118   2.918   3.794 -1.4050  0.8886  0.7929
    7CHTO  C124 2566   6.125   3.136   3.840 -0.5281 -0.3938  0.1427
    7CHTO   O83 2567   6.184   3.143   3.968 -0.7880  0.2951 -0.5889
    7CHTO  H204 2568   6.184   3.231   4.000 -1.6241 -0.2923  1.0698
    7CHTO  C109 2569   6.264   3.013   3.668 -0.1774  0.1187  0.1799
    7CHTO  H213 2570   6.282   3.108   3.615 -0.0613 -0.2591 -0.4646
    7CHTO  C110 2571   6.271   2.895   3.566 -0.2524  0.0721  0.4499
    7CHTO  H214 2572   6.274   2.797   3.614  2.3939 -1.1730 -2.0477
    7CHTO   O78 2573   6.398   2.911   3.495  0.0671 -0.3253 -0.0005
    7CHTO  H200 2574   6.471   2.937   3.548  0.5476 -0.3968 -0.6159
    7CHTO  C111 2575   6.147   2.902   3.473 -0.0089  0.6539 -0.8281
    7CHTO  H215 2576   6.155   2.998   3.418 -0.6949  2.2020  1.7105
    7CHTO   N19 2577   6.142   2.789   3.371 -0.8632  0.0071 -0.5398
    7CHTO  H207 2578   6.113   2.697   3.420 -1.8761  0.9434  0.6669
    7CHTO  H208 2579   6.074   2.802   3.289  1.0491 -0.8036 -2.2804
    7CHTO   O74 2580   6.370   2.983   3.757  0.0360 -0.1322 -0.1933
    7CHTO  C115 2581   6.499   3.075   3.728 -0.0892  0.2245  0.3124
    7CHTO  H219 2582   6.499   3.112   3.625 -2.1130 -2.8176 -0.8608
    7CHTO   O76 2583   6.512   3.211   3.831  0.3936  0.0176  0.2803
    7CHTO  C122 2584   6.530   3.166   3.965  0.0869 -0.6131 -0.4399
    7CHTO  H226 2585   6.449   3.098   3.993 -2.2313  1.6537 -1.4011
    7CHTO  C126 2586   6.517   3.291   4.064  0.5727 -0.0998 -0.2157
    7CHTO   O85 2587   6.395   3.362   4.083 -0.2058 -0.7802  0.3375
    7CHTO  H206 2588   6.390   3.417   4.007  0.2422  1.8201  2.1218
    7CHTO  C121 2589   6.662   3.082   3.985  0.5304  0.1159 -0.0207
    7CHTO  H225 2590   6.745   3.144   3.944  0.8206  0.3829  0.9493
    7CHTO   O81 2591   6.693   3.062   4.120 -0.0049  0.2531  0.6691
    7CHTO  H202 2592   6.626   3.021   4.171 -0.4290  0.2826  0.1448
    7CHTO  C119 2593   6.648   2.951   3.892 -1.5267  0.0012 -0.0451
    7CHTO  H223 2594   6.742   2.899   3.908 -1.4391  0.0250 -0.4803
    7CHTO  C117 2595   6.623   2.981   3.740  0.8933 -0.3558  0.5755
    7CHTO  H221 2596   6.592   2.896   3.680  2.2958 -0.6658  0.2710
    7CHTO   N20 2597   6.748   3.027   3.675 -0.2343 -0.2895  0.0690
    7CHTO  H209 2598   6.739   2.999   3.571  0.1105  0.2397 -0.1058
    7CHTO  H210 2599   6.760   3.134   3.680  1.7494 -0.4948  0.1086
    7CHTO   O80 2600   6.539   2.843   3.949 -0.3974  0.4404  0.0653
    7CHTO  C103 2601   6.529   2.702   3.883 -0.5190 -0.5053 -0.7305
    7CHTO  H190 2602   6.473   2.715   3.791  0.9391  1.3662 -1.3850
    7CHTO  C101 2603   6.656   2.617   3.859 -0.0996 -0.4897 -0.5809
    7CHTO  H188 2604   6.714   2.623   3.951  0.2639  0.1740 -0.8456
    7CHTO   O68 2605   6.734   2.674   3.750 -0.2083 -0.1246 -0.1414
    7CHTO  H168 2606   6.825   2.672   3.773 -0.4900 -1.5259  0.9893
    7CHTO   C99 2607   6.619   2.461   3.834 -0.7584  0.2583  0.5265
    7CHTO  H186 2608   6.566   2.449   3.738  0.7012  0.8208 -0.3762
    7CHTO   N17 2609   6.741   2.375   3.828  1.1449 -0.1092  0.0432
    7CHTO  H174 2610   6.835   2.427   3.832  0.9807  0.2431 -0.5577
    7CHTO  H175 2611   6.740   2.297   3.754  0.8260  0.1539 -0.2364
    7CHTO   C97 2612   6.521   2.416   3.945 -0.3861  0.2543 -0.4336
    7CHTO  H184 2613   6.569   2.411   4.043 -1.4752 -1.5373  0.0354
    7CHTO   O64 2614   6.404   2.502   3.941 -0.1163 -0.2201  0.0823
    7CHTO  C104 2615   6.445   2.630   3.990  0.0947 -0.1396 -0.1168
    7CHTO  H191 2616   6.506   2.615   4.079 -0.5044 -2.1842 -0.0268
    7CHTO  C108 2617   6.317   2.711   4.034 -0.0204 -0.0659 -0.0591
    7CHTO   O71 2618   6.221   2.703   3.931  0.4654  0.5907  0.7940
    7CHTO  H171 2619   6.248   2.768   3.870 -1.6482  1.5705  0.8619
    7CHTO   O62 2620   6.462   2.283   3.916  0.3253 -0.3440 -0.3170
    7CHTO   C91 2621   6.389   2.205   4.018 -0.0458 -0.1011  0.0197
    7CHTO  H178 2622   6.340   2.122   3.966  1.0001 -1.9920  1.9595
    7CHTO   C92 2623   6.277   2.280   4.096 -0.4139  0.4343 -0.5339
    7CHTO  H179 2624   6.322   2.370   4.139 -0.6367  1.1521 -1.7756
    7CHTO   O66 2625   6.178   2.319   4.006  0.1811 -0.5115  0.1467
    7CHTO  H166 2626   6.146   2.253   3.947  0.2469  1.2329 -1.9129
    7CHTO   C93 2627   6.205   2.186   4.213  0.4071  0.4420 -0.0240
    7CHTO  H180 2628   6.127   2.126   4.163  1.3786 -3.4960  2.9881
    7CHTO   N16 2629   6.125   2.272   4.306 -0.5786  0.7575 -0.1958
    7CHTO  H172 2630   6.191   2.320   4.377 -3.0174  1.9846  1.2921
    7CHTO  H173 2631   6.061   2.342   4.254  2.5124  1.2779 -3.5388
    7CHTO   C94 2632   6.317   2.096   4.282  0.1126  0.1030 -0.2220
    7CHTO  H181 2633   6.377   2.157   4.350 -0.4131  0.6430 -0.2339
    7CHTO   O61 2634   6.396   2.032   4.184 -0.2189  0.1261  0.6555
    7CHTO   C95 2635   6.481   2.128   4.117 -0.0871 -0.0105  0.0106
    7CHTO  H182 2636   6.530   2.193   4.189  1.8694  0.7112 -1.9142
    7CHTO  C106 2637   6.591   2.056   4.041  0.2937 -0.1056 -0.2177
    7CHTO   O69 2638   6.536   1.964   3.948  0.1359  0.2136 -0.6753
    7CHTO  H169 2639   6.466   1.919   3.991  1.2757  2.2137  3.6539
    7CHTO   O63 2640   6.253   1.987   4.345 -0.1034  0.2596  0.0577
    7CHTO   C96 2641   6.327   1.959   4.494  0.0986  1.5228  0.3326
    7CHTO  H183 2642   6.340   2.053   4.546 -1.3540  2.6858 -1.3357
    7CHTO   C98 2643   6.458   1.878   4.485  0.2250 -0.1742  0.6423
    7CHTO  H185 2644   6.503   1.906   4.389  2.1371  0.0239  1.5824
    7CHTO   O67 2645   6.551   1.906   4.588  0.6388  0.2380 -0.3683
    7CHTO  H167 2646   6.634   1.864   4.575  0.3643 -0.7966  1.1833
    7CHTO  C102 2647   6.427   1.716   4.483  0.1842 -0.2242 -0.0374
    7CHTO  H189 2648   6.522   1.666   4.506 -0.9886 -2.0969  0.8475
    7CHTO   N18 2649   6.382   1.661   4.351  0.1605  0.7778 -0.1975
    7CHTO  H176 2650   6.332   1.567   4.362  1.1437  0.3166  0.4441
    7CHTO  H177 2651   6.318   1.727   4.296 -0.0721  0.1193 -0.7164
    7CHTO  C105 2652   6.336   1.669   4.605  0.2927  0.1478 -0.0606
    7CHTO  H192 2653   6.248   1.614   4.569 -1.5447  1.6434  2.0013
    7CHTO   O65 2654   6.278   1.779   4.674  0.8326 -0.1025  0.2234
    7CHTO  C100 2655   6.222   1.879   4.583  0.8506  0.8631 -0.1348
    7CHTO  H187 2656   6.164   1.823   4.507  0.6482  2.0481 -0.8559
    7CHTO  C107 2657   6.134   1.977   4.667 -0.0646  0.2549  0.1755
    7CHTO   O70 2658   6.056   2.074   4.595 -0.0298  0.0477  0.4309
    7CHTO  H170 2659   5.975   2.073   4.642 -0.0391  0.0992  0.4152
    7CHTO   O57 2660   6.450   1.591   4.719 -0.6219 -0.4908 -0.1101
    7CHTO   C85 2661   6.496   1.452   4.735 -0.2774  0.5723  0.5343
    7CHTO  H157 2662   6.518   1.430   4.628 -1.6190 -0.8458  0.5454
    7CHTO   C83 2663   6.380   1.367   4.786 -0.0690  0.1498  0.4569
    7CHTO  H155 2664   6.310   1.383   4.704  0.7427  1.8617  0.0783
    7CHTO   O56 2665   6.325   1.415   4.910 -0.3590  0.3470  0.1601
    7CHTO  H135 2666   6.377   1.380   4.980 -0.5158 -0.5287 -0.1552
    7CHTO   C81 2667   6.429   1.222   4.780 -0.0334  0.3019 -0.0469
    7CHTO  H153 2668   6.466   1.202   4.679 -0.0074  0.3592 -0.0489
    7CHTO   N14 2669   6.325   1.121   4.797  0.0957 -0.4559  0.6736
    7CHTO  H141 2670   6.292   1.117   4.898  2.7048 -0.8266  1.5466
    7CHTO  H142 2671   6.359   1.025   4.764  0.2909  0.2475 -1.2737
    7CHTO   C79 2672   6.549   1.199   4.879 -0.0839 -0.5820 -0.0338
    7CHTO  H151 2673   6.587   1.098   4.866  1.8836  0.2733 -1.1855
    7CHTO   O52 2674   6.657   1.289   4.848  0.2511 -0.0925 -0.3756
    7CHTO   C86 2675   6.614   1.427   4.830 -0.2974  0.2767 -0.1328
    7CHTO  H158 2676   6.591   1.456   4.935 -0.1822  1.3037 -0.3876
    7CHTO   C90 2677   6.736   1.510   4.789  0.0666  0.9440 -0.2507
    7CHTO   O60 2678   6.838   1.522   4.894  0.4050  0.6839 -0.7788
    7CHTO  H138 2679   6.863   1.612   4.896  0.8864  0.5212  1.1945
    7CHTO   O50 2680   6.511   1.228   5.012  0.1221  1.0894  0.7211
    7CHTO   C73 2681   6.515   1.153   5.134  0.5637  0.0786  0.2787
    7CHTO  H145 2682   6.591   1.074   5.128 -0.5321 -0.9146 -1.2001
    7CHTO   C74 2683   6.376   1.080   5.149  0.5974 -0.5730 -0.7846
    7CHTO  H146 2684   6.352   1.019   5.060 -1.8650  0.5967 -0.9572
    7CHTO   O54 2685   6.378   0.989   5.262 -0.5997  0.1254 -0.5571
    7CHTO  H133 2686   6.435   0.924   5.226  0.0408  0.6071 -0.4339
    7CHTO   C75 2687   6.270   1.190   5.168 -0.1816 -0.1288 -0.1569
    7CHTO  H147 2688   6.261   1.242   5.071  1.2549  2.8322  1.2290
    7CHTO   N13 2689   6.127   1.148   5.175  0.1215  0.3252 -0.0843
    7CHTO  H139 2690   6.057   1.224   5.206  1.2529  1.6003 -0.6483
    7CHTO  H140 2691   6.123   1.070   5.251 -0.2285 -1.6844 -2.0999
    7CHTO   C76 2692   6.308   1.293   5.286  0.0723  0.1502  0.2976
    7CHTO  H148 2693   6.309   1.242   5.382 -1.8810  0.2945  0.4167
    7CHTO   O49 2694   6.446   1.345   5.271  0.5277 -0.0147 -0.6854
    7CHTO   C77 2695   6.550   1.248   5.251  0.5957 -0.0833 -0.3436
    7CHTO  H149 2696   6.559   1.190   5.343 -0.0186  2.6329  1.5026
    7CHTO   C88 2697   6.688   1.313   5.231  0.8577  0.8231  0.4536
    7CHTO   O58 2698   6.702   1.420   5.354  0.2934 -0.2469  0.5828
    7CHTO  H136 2699   6.790   1.451   5.351 -0.0458  0.6975  0.1594
    7CHTO   O51 2700   6.225   1.417   5.280  0.5105 -0.0863 -0.0505
    7CHTO   C78 2701   6.167   1.456   5.425 -0.6197  0.1646 -0.1561
    7CHTO  H150 2702   6.242   1.413   5.495  1.3108 -0.5883 -2.6104
    7CHTO   C80 2703   6.026   1.399   5.460  0.5310  0.7039 -0.4180
    7CHTO  H152 2704   5.953   1.424   5.380  0.7420  1.8171 -0.2763
    7CHTO   O55 2705   6.045   1.261   5.481 -0.0990  0.1094  0.3836
    7CHTO  H134 2706   5.959   1.229   5.465 -0.7859  2.1514 -0.2500
    7CHTO   C84 2707   5.975   1.465   5.592  0.2399  0.3095 -0.6201
    7CHTO  H156 2708   6.028   1.434   5.682  0.1860  3.2839  0.5121
    7CHTO   N15 2709   5.834   1.431   5.626  0.2675 -0.9353  0.2916
    7CHTO  H143 2710   5.791   1.379   5.543 -0.1421  0.1853 -0.2120
    7CHTO  H144 2711   5.824   1.369   5.713 -1.9555 -0.0706  0.6912
    7CHTO   C87 2712   5.995   1.618   5.589 -0.0363  0.4277  0.0246
    7CHTO  H159 2713   5.926   1.666   5.519  0.5222 -0.8446 -1.4386
    7CHTO   O53 2714   6.128   1.651   5.563 -0.5630 -0.0095 -0.3683
    7CHTO   C82 2715   6.174   1.613   5.432  0.0167  0.0749  0.4651
    7CHTO  H154 2716   6.103   1.648   5.357 -0.4995 -0.0926  0.8746
    7CHTO   C89 2717   6.321   1.672   5.398 -0.4989 -0.1418  0.5678
    7CHTO   O59 2718   6.320   1.810   5.438 -0.3401 -0.4565  0.2198
    7CHTO  H137 2719   6.294   1.818   5.528  1.7639 -1.6288  0.9934
    7CHTO   O45 2720   5.973   1.678   5.714  0.1592  0.8120 -0.1719
    7CHTO   C67 2721   5.962   1.818   5.715 -0.0168  0.4909  0.1488
    7CHTO  H124 2722   6.015   1.855   5.627  1.0007 -2.4577 -0.5473
    7CHTO   C65 2723   5.809   1.848   5.701  0.3491 -0.3123 -0.4024
    7CHTO  H122 2724   5.757   1.757   5.731 -1.2520  1.1715  1.4689
    7CHTO   O44 2725   5.787   1.866   5.561  0.0733 -0.0194  0.2312
    7CHTO  H102 2726   5.700   1.895   5.544 -1.0182 -3.0362  0.5670
    7CHTO   C63 2727   5.759   1.956   5.800 -0.0370  0.7057  0.5451
    7CHTO  H120 2728   5.743   1.917   5.901 -1.7442 -1.6658 -0.6014
    7CHTO   N11 2729   5.612   2.009   5.781  0.0046 -0.8248  0.4652
    7CHTO  H108 2730   5.539   1.963   5.846 -2.6599  1.6890 -0.6247
    7CHTO  H109 2731   5.582   1.982   5.682 -0.9443 -1.2684  0.8666
    7CHTO   C61 2732   5.867   2.079   5.805  0.2810  0.1925 -1.5413
    7CHTO  H118 2733   5.839   2.153   5.882  2.0550  1.0196 -1.6642
    7CHTO   O40 2734   5.994   2.034   5.843  0.6023 -0.1617  0.5525
    7CHTO   C68 2735   6.019   1.889   5.838  0.4809 -0.7926  0.3307
    7CHTO  H125 2736   5.961   1.835   5.915  0.3936  0.4887  1.1676
    7CHTO   C72 2737   6.168   1.853   5.858  0.2111  0.0023 -0.0734
    7CHTO   O48 2738   6.193   1.861   6.001  0.0483 -0.3444  0.5622
    7CHTO  H105 2739   6.250   1.793   6.031  2.1832  0.0387 -2.4466
    7CHTO   O38 2740   5.886   2.137   5.676 -0.4288 -0.4290 -0.2300
    7CHTO   C55 2741   5.924   2.270   5.668 -0.2636 -0.4045 -0.3659
    7CHTO  H112 2742   5.963   2.305   5.764  0.7386  3.6236 -2.1416
    7CHTO   C56 2743   5.802   2.360   5.625 -0.1454 -0.1102  0.9262
    7CHTO  H113 2744   5.768   2.309   5.534 -0.0208  1.5992 -0.0965
    7CHTO   O42 2745   5.695   2.341   5.720  0.5007 -0.3819 -0.6351
    7CHTO  H100 2746   5.729   2.367   5.803 -1.5320  3.0120 -0.7837
    7CHTO   C57 2747   5.847   2.514   5.592 -1.2667 -1.1038  0.6348
    7CHTO  H114 2748   5.876   2.561   5.686 -0.3082 -0.3332 -0.0459
    7CHTO   N10 2749   5.742   2.583   5.518 -0.3498 -0.0202  0.6628
    7CHTO  H106 2750   5.681   2.513   5.463  0.6374 -0.8300  0.5823
    7CHTO  H107 2751   5.786   2.648   5.444 -3.2459 -0.4774 -1.5545
    7CHTO   C58 2752   5.980   2.514   5.509 -0.0600 -0.3886 -0.2123
    7CHTO  H115 2753   5.959   2.463   5.412  1.3850 -1.2876 -0.0669
    7CHTO   O37 2754   6.083   2.431   5.574 -0.5210  0.5143  0.0624
    7CHTO   C59 2755   6.046   2.291   5.574  0.1532 -0.3365  0.1699
    7CHTO  H116 2756   6.024   2.258   5.473  0.0886  0.2987 -0.0246
    7CHTO   C70 2757   6.159   2.204   5.624  0.6720 -0.6144  0.3421
    7CHTO   O46 2758   6.227   2.246   5.741 -0.3578 -0.5951 -0.1638
    7CHTO  H103 2759   6.312   2.207   5.748 -0.2129 -0.7647 -2.6654
    7CHTO   O39 2760   6.036   2.673   5.498  0.5882 -0.2010 -0.5347
    7CHTO   C60 2761   6.139   2.680   5.397  0.1392 -0.8012  0.3458
    7CHTO  H117 2762   6.204   2.592   5.404 -0.7597 -1.5104 -0.0794
    7CHTO   C62 2763   6.074   2.699   5.255  0.9065  0.1802  0.6163
    7CHTO  H119 2764   6.012   2.609   5.236 -0.7537  1.4777 -0.1547
    7CHTO   O43 2765   5.986   2.810   5.238 -0.6232  0.4655 -0.2225
    7CHTO  H101 2766   5.914   2.803   5.298  0.0917 -2.5375  0.3762
    7CHTO   C66 2767   6.192   2.693   5.150 -0.2323  0.2422 -0.3404
    7CHTO  H123 2768   6.258   2.610   5.173 -0.6646  0.2121  0.8413
    7CHTO   N12 2769   6.152   2.687   5.011  0.6024 -0.1105 -0.2976
    7CHTO  H110 2770   6.126   2.591   4.969  2.5601 -1.6985  1.9944
    7CHTO  H111 2771   6.079   2.765   4.994  1.6745  0.8874 -0.3791
    7CHTO   C69 2772   6.284   2.815   5.179  0.5897 -0.1240  0.6419
    7CHTO  H126 2773   6.237   2.909   5.143  0.1505 -0.1437  1.1690
    7CHTO   O41 2774   6.336   2.813   5.327 -0.3812  0.5506 -0.0074
    7CHTO   C64 2775   6.229   2.801   5.429 -0.3747  0.0961  0.3615
    7CHTO  H121 2776   6.176   2.898   5.428 -0.1902  0.2063  0.9766
    7CHTO   C71 2777   6.301   2.776   5.568 -0.1317 -0.5673  0.0827
    7CHTO   O47 2778   6.328   2.899   5.632 -0.4526  0.6957 -0.1524
    7CHTO  H104 2779   6.260   2.937   5.684 -0.7729 -0.8914  0.6282
    7CHTO   O34 2780   6.401   2.811   5.094 -0.2677  0.1173  0.4333
    7CHTO   C49 2781   6.501   2.888   5.046  0.4939  0.5257  0.3299
    7CHTO   H91 2782   6.460   2.973   4.991  1.8282  1.4422  0.7259
    7CHTO   C47 2783   6.571   2.795   4.943  0.4606 -0.6168  0.5070
    7CHTO   H89 2784   6.628   2.880   4.900 -2.1628  0.4931 -0.8648
    7CHTO   O33 2785   6.482   2.746   4.839  0.0377  0.0685 -0.5405
    7CHTO   H70 2786   6.427   2.815   4.810 -1.6231  0.5399  3.4110
    7CHTO   C45 2787   6.645   2.677   5.018 -0.7814 -0.1937 -0.4809
    7CHTO   H87 2788   6.582   2.588   5.031 -2.3021  1.2467  2.7654
    7CHTO    N8 2789   6.766   2.653   4.940 -0.1352 -0.1581 -0.2501
    7CHTO   H75 2790   6.822   2.584   5.001  0.0834 -2.1952 -2.6988
    7CHTO   H76 2791   6.819   2.741   4.907  1.5586 -1.3689 -0.8175
    7CHTO   C43 2792   6.663   2.703   5.175 -0.1256  1.2352  0.3373
    7CHTO   H85 2793   6.565   2.684   5.218  0.4144  0.4120  1.2269
    7CHTO   O29 2794   6.706   2.835   5.202 -0.1686  0.8182  0.3055
    7CHTO   C50 2795   6.600   2.929   5.158 -0.7569 -0.1198 -0.6162
    7CHTO   H92 2796   6.546   2.956   5.250  0.2970 -1.7502  0.4894
    7CHTO   C54 2797   6.677   3.054   5.122  0.7144 -0.5961 -0.4313
    7CHTO   O36 2798   6.602   3.163   5.053  0.0572  0.3012  0.3696
    7CHTO   H72 2799   6.645   3.246   5.051 -0.8093  0.7435  0.0352
    7CHTO   O27 2800   6.752   2.606   5.235 -0.5530 -0.5410  0.5016
    7CHTO   C37 2801   6.742   2.495   5.321  0.1261  0.2675 -0.2019
    7CHTO   H79 2802   6.687   2.520   5.413 -0.7665 -1.5600 -0.2362
    7CHTO   C38 2803   6.649   2.379   5.262 -0.0060 -0.2079  0.0497
    7CHTO   H80 2804   6.682   2.353   5.160  0.6045 -0.3193  0.2739
    7CHTO   O31 2805   6.509   2.425   5.259  0.3468 -0.0995 -0.0239
    7CHTO   H68 2806   6.488   2.433   5.350 -0.6042  2.1739 -0.4269
    7CHTO   C39 2807   6.668   2.253   5.354 -0.2750 -0.7799  0.1782
    7CHTO   H81 2808   6.623   2.268   5.452 -1.1996 -2.1918 -0.0287
    7CHTO    N7 2809   6.598   2.134   5.295  0.6055  0.1125 -0.0842
    7CHTO   H73 2810   6.541   2.165   5.209  0.5428  3.1957  1.0174
    7CHTO   H74 2811   6.671   2.054   5.295  0.7945  0.2824 -0.5309
    7CHTO   C40 2812   6.823   2.225   5.382  0.9691  0.1210 -0.2938
    7CHTO   H82 2813   6.866   2.200   5.286 -0.7701 -1.3595 -0.7211
    7CHTO   O26 2814   6.886   2.345   5.440  0.1033 -0.2591  0.4498
    7CHTO   C41 2815   6.893   2.455   5.352 -0.0861  0.0107 -0.6810
    7CHTO   H83 2816   6.948   2.437   5.259 -1.2176 -1.4807 -1.0697
    7CHTO   C52 2817   6.973   2.563   5.428 -0.5436  0.1690  0.0051
    7CHTO   O35 2818   7.040   2.654   5.324  0.0175  0.1167  0.4911
    7CHTO   H71 2819   7.112   2.601   5.295  1.6783  1.3225  2.2710
    7CHTO   O28 2820   6.843   2.122   5.476  0.0890 -0.5694 -0.0587
    7CHTO   C42 2821   6.960   2.033   5.461  0.2168  0.0800  0.0506
    7CHTO   H84 2822   6.962   1.989   5.561 -0.4247 -0.6924 -0.2621
    7CHTO   C44 2823   7.098   2.108   5.447 -0.1450  0.7837  0.2461
    7CHTO   H86 2824   7.092   2.191   5.377 -0.5945  0.2765 -0.3253
    7CHTO   O32 2825   7.116   2.163   5.577 -0.1681 -0.3647  0.0738
    7CHTO   H69 2826   7.073   2.247   5.577  2.5718  1.1088 -1.3493
    7CHTO   C48 2827   7.208   2.002   5.395 -0.8545 -0.2418  0.6191
    7CHTO   H90 2828   7.221   1.937   5.481  3.5104 -0.8790 -0.3982
    7CHTO    N9 2829   7.335   2.077   5.374  0.3028  0.3414  0.2953
    7CHTO   H77 2830   7.396   2.002   5.325 -1.9449 -1.2194 -0.2089
    7CHTO   H78 2831   7.323   2.171   5.322  0.7057  0.5733  0.6249
    7CHTO   C51 2832   7.161   1.928   5.267  0.8246  0.5335  0.1830
    7CHTO   H93 2833   7.113   2.000   5.200 -0.0532  0.9404  1.2379
    7CHTO   O30 2834   7.057   1.841   5.327 -0.1457  0.3986 -0.1817
    7CHTO   C46 2835   6.927   1.923   5.364 -0.5148  0.0922  0.4951
    7CHTO   H88 2836   6.885   1.968   5.274 -3.0191  0.0103  1.5730
    7CHTO   C53 2837   6.826   1.826   5.422 -0.1270 -0.4304 -0.5019
    7CHTO   O72 2838   6.753   1.748   5.326 -0.0865 -0.3917  0.3913
    7CHTO  H199 2839   6.824   1.714   5.274 -0.2402 -0.4142  0.1971
    7CHTO   O22 2840   7.255   1.835   5.203 -0.1895 -0.3099 -0.0046
    7CHTO   C31 2841   7.263   1.815   5.056  0.1995 -0.3001  0.0832
    7CHTO   H59 2842   7.318   1.720   5.042  1.0275 -0.4264  3.7882
    7CHTO   C29 2843   7.132   1.793   4.979 -0.6888 -0.2715  0.0990
    7CHTO   H57 2844   7.076   1.887   4.989  0.5824  0.6501 -1.2339
    7CHTO   O21 2845   7.051   1.687   5.030  0.2961  0.3810 -0.0903
    7CHTO   H37 2846   6.964   1.684   4.995 -0.0863 -1.6095  0.9870
    7CHTO   C27 2847   7.172   1.777   4.828  1.3369 -0.0880  0.3496
    7CHTO   H55 2848   7.225   1.682   4.811  2.1349  1.0086 -4.0178
    7CHTO    N5 2849   7.049   1.770   4.748  0.3083 -0.2902 -0.1185
    7CHTO   H43 2850   6.969   1.833   4.782 -0.0983 -0.3212 -0.9975
    7CHTO   H44 2851   7.025   1.665   4.734  0.2474 -0.1823 -0.8122
    7CHTO   C25 2852   7.244   1.904   4.776  0.3518  0.4852 -0.0713
    7CHTO   H53 2853   7.190   2.000   4.775  0.3424  0.4783 -0.4216
    7CHTO   O17 2854   7.360   1.926   4.862  0.2031  0.6263  0.4083
    7CHTO   C32 2855   7.347   1.924   5.004  0.1004 -0.3761 -0.1648
    7CHTO   H60 2856   7.291   2.015   5.025 -2.3035 -1.5263 -1.3916
    7CHTO   C36 2857   7.485   1.932   5.059  0.0825 -0.3193  0.0553
    7CHTO   O25 2858   7.570   1.816   5.043  1.0373  0.3356 -0.3319
    7CHTO   H40 2859   7.606   1.786   5.125  1.0277 -0.2187 -0.5261
    7CHTO   O15 2860   7.305   1.886   4.649 -0.6051 -0.2936  0.3471
    7CHTO   C19 2861   7.312   1.945   4.516 -0.5928  0.5342  0.1685
    7CHTO   H47 2862   7.398   1.888   4.477  0.1612  1.1858  0.8604
    7CHTO   C20 2863   7.190   1.929   4.414 -0.4638  0.3779 -0.5263
    7CHTO   H48 2864   7.100   1.983   4.449 -0.4424  0.0556  0.0378
    7CHTO   O19 2865   7.168   1.789   4.418 -0.8953 -0.2923  0.6919
    7CHTO   H35 2866   7.112   1.778   4.493 -2.0540 -1.0203 -0.2866
    7CHTO   C21 2867   7.234   1.986   4.271  0.3979 -0.2246 -0.1997
    7CHTO   H49 2868   7.322   1.930   4.237 -0.2431 -0.7117 -1.0810
    7CHTO    N4 2869   7.125   1.970   4.171  0.0088 -0.1553  0.4007
    7CHTO   H41 2870   7.074   2.062   4.148 -0.2835 -0.7450 -1.3738
    7CHTO   H42 2871   7.166   1.929   4.080  1.1070  2.3227 -0.2662
    7CHTO   C22 2872   7.287   2.129   4.292 -0.3457 -0.3001  0.2910
    7CHTO   H50 2873   7.201   2.189   4.320 -1.5169 -1.3889 -0.9408
    7CHTO   O14 2874   7.390   2.144   4.393  0.1755  0.4622  0.2420
    7CHTO   C23 2875   7.364   2.093   4.526 -0.0133  0.3620 -0.0247
    7CHTO   H51 2876   7.288   2.157   4.573 -0.5263  1.1900 -1.9408
    7CHTO   C34 2877   7.492   2.101   4.603 -0.6374  0.0846 -0.1951
    7CHTO   O23 2878   7.549   2.233   4.609 -0.6221 -0.0591  0.4281
    7CHTO   H38 2879   7.583   2.257   4.693 -0.3496 -0.8382  0.5472
    7CHTO   O16 2880   7.350   2.174   4.175 -0.1069  0.0133 -0.0034
    7CHTO   C24 2881   7.329   2.344   4.151 -0.8085  0.6726  0.3247
    7CHTO   H52 2882   7.339   2.399   4.244 -1.6915  0.0865  0.7745
    7CHTO   C26 2883   7.195   2.376   4.082  0.2708 -0.3981  0.8928
    7CHTO   H54 2884   7.175   2.288   4.018 -1.8622 -0.3333  1.4422
    7CHTO   O20 2885   7.092   2.360   4.182  0.2854  0.1587  0.1864
    7CHTO   H36 2886   7.065   2.443   4.216 -1.7968 -1.1895  1.9006
    7CHTO   C30 2887   7.190   2.519   4.016 -0.7287  0.2793 -0.3253
    7CHTO   H58 2888   7.158   2.596   4.087 -3.4035 -0.6519 -0.4541
    7CHTO    N6 2889   7.077   2.515   3.922  1.0215 -0.1358  0.3335
    7CHTO   H45 2890   7.093   2.516   3.815 -0.8064 -2.7859 -0.0166
    7CHTO   H46 2891   7.002   2.588   3.943  1.9663  0.9532 -0.0162
    7CHTO   C33 2892   7.324   2.555   3.945  0.3906 -0.4748 -0.2205
    7CHTO   H61 2893   7.333   2.497   3.852 -0.6258 -3.0859  1.2349
    7CHTO   O18 2894   7.429   2.526   4.034 -0.6635 -0.2616  0.0664
    7CHTO   C28 2895   7.450   2.392   4.067  0.0032  0.6209 -0.2715
    7CHTO   H56 2896   7.460   2.332   3.977  0.1509 -0.3849  0.4061
    7CHTO   C35 2897   7.582   2.382   4.145 -0.6532  0.3816  0.0708
    7CHTO   O24 2898   7.698   2.430   4.076  0.5158 -0.2072  0.2272
    7CHTO   H39 2899   7.762   2.365   4.056  0.9470  0.9430 -2.3026
    7CHTO    O9 2900   7.317   2.692   3.917 -0.9428  0.2371  0.6205
    7CHTO   C13 2901   7.424   2.743   3.794 -0.9055 -0.1563 -0.7476
    7CHTO   H26 2902   7.435   2.656   3.726  1.6080 -0.9696  0.6362
    7CHTO   C11 2903   7.566   2.785   3.854  0.6468 -0.0897  0.5562
    7CHTO   H24 2904   7.630   2.696   3.860  0.8518  0.0558  0.5616
    7CHTO    O8 2905   7.558   2.858   3.972 -0.1908  0.4050  0.1785
    7CHTO    H3 2906   7.478   2.906   3.969 -0.5719 -0.2240  0.2117
    7CHTO    C9 2907   7.634   2.868   3.740 -0.2744 -0.2053  0.3772
    7CHTO   H22 2908   7.620   2.813   3.646  1.2960 -0.7335  0.4350
    7CHTO    N2 2909   7.782   2.881   3.744 -0.0042  0.2355  0.7592
    7CHTO   H10 2910   7.831   2.791   3.711  2.1957  1.7994 -0.2954
    7CHTO   H11 2911   7.813   2.945   3.663  0.8368 -1.9430 -0.7059
    7CHTO    C7 2912   7.548   2.998   3.726 -0.2121  0.5808 -0.3550
    7CHTO   H20 2913   7.566   3.032   3.622 -1.0747 -0.2580 -0.7904
    7CHTO    O4 2914   7.408   2.982   3.731  0.1548  0.1046 -0.4493
    7CHTO   C14 2915   7.360   2.851   3.706  0.2915 -0.8204 -0.5001
    7CHTO   H27 2916   7.382   2.837   3.598  1.0998 -1.0357 -0.3132
    7CHTO   C18 2917   7.208   2.841   3.716  0.3790  0.1823  0.4553
    7CHTO   O13 2918   7.153   2.709   3.676  0.3065 -0.0733  0.1240
    7CHTO    H7 2919   7.072   2.718   3.631  0.8395 -0.6933 -0.9687
    7CHTO    O2 2920   7.588   3.121   3.842 -0.4679  0.4397 -0.4100
    7CHTO    C1 2921   7.500   3.234   3.828 -0.7072 -0.0930 -0.4876
    7CHTO   H14 2922   7.407   3.204   3.777 -1.6715  0.1048  1.1422
    7CHTO    C2 2923   7.550   3.355   3.747  0.4365 -0.6009 -0.6997
    7CHTO   H15 2924   7.650   3.380   3.787  0.2383  1.0828 -1.2239
    7CHTO    O6 2925   7.547   3.317   3.611 -0.5642 -0.4340 -0.0790
    7CHTO    H1 2926   7.555   3.392   3.555  1.8382 -0.9766 -0.5111
    7CHTO    C3 2927   7.457   3.485   3.771  0.3864 -0.2870 -0.7409
    7CHTO   H16 2928   7.356   3.485   3.727  0.5638  2.5133 -1.2439
    7CHTO    N1 2929   7.519   3.607   3.717 -0.7664  0.2552  0.4399
    7CHTO    H8 2930   7.613   3.623   3.768 -1.3873  1.6611  1.1605
    7CHTO    H9 2931   7.448   3.687   3.720  0.7618  1.6905 -0.4977
    7CHTO    C4 2932   7.431   3.510   3.926  0.7125  0.4716 -0.3437
    7CHTO   H17 2933   7.521   3.547   3.976  0.2367  2.7226 -1.0912
    7CHTO    O1 2934   7.380   3.387   3.981 -0.5104  0.0933 -0.3804
    7CHTO    C5 2935   7.479   3.283   3.974  0.1773 -0.0089  0.9987
    7CHTO   H18 2936   7.575   3.316   4.013 -0.2675  0.0718  2.0201
    7CHTO   C16 2937   7.439   3.159   4.055 -0.3677 -0.0299 -0.1908
    7CHTO   O11 2938   7.316   3.094   4.013 -0.6007  0.0896  0.0147
    7CHTO    H5 2939   7.237   3.129   4.050 -2.1153 -1.0847 -2.0086
    7CHTO    O3 2940   7.322   3.601   3.945  0.4403 -0.0856  1.0786
    7CHTO    C6 2941   7.310   3.677   4.071 -0.3691  1.0863 -0.7293
    7CHTO   H19 2942   7.206   3.705   4.086 -1.5161 -2.6428 -1.2072
    7CHTO    C8 2943   7.354   3.597   4.197  0.0714 -0.0138 -0.1678
    7CHTO   H21 2944   7.455   3.559   4.182  1.0167  2.9099 -1.5783
    7CHTO    O7 2945   7.252   3.493   4.217 -0.4267  0.4310 -0.2086
    7CHTO    H2 2946   7.283   3.418   4.170 -1.0662  1.1100 -1.7349
    7CHTO   C12 2947   7.373   3.688   4.318  0.2573  0.7628 -0.7166
    7CHTO   H25 2948   7.268   3.714   4.345  0.3881  0.1501  0.3703
    7CHTO    N3 2949   7.436   3.616   4.435  0.9711  0.4208 -0.0484
    7CHTO   H12 2950   7.531   3.664   4.449 -0.0149  2.6880 -0.8364
    7CHTO   H13 2951   7.373   3.628   4.522 -0.7472  0.0839 -1.2113
    7CHTO   C15 2952   7.442   3.821   4.283  0.1860  0.2262 -0.3543
    7CHTO   H28 2953   7.551   3.815   4.279  0.2929  0.4629  1.5596
    7CHTO   O10 2954   7.410   3.934   4.381  0.2748 -0.0194 -0.0146
    7CHTO    H4 2955   7.454   3.912   4.461 -1.1420 -0.7573  0.5782
    7CHTO    O5 2956   7.383   3.881   4.169  0.2812 -0.7308  0.0912
    7CHTO   C10 2957   7.397   3.804   4.052  0.2090 -0.3617 -0.0067
    7CHTO   H23 2958   7.502   3.780   4.040 -0.0614 -1.2449 -0.5788
    7CHTO   C17 2959   7.350   3.905   3.950  0.0979  0.5315  0.5283
    7CHTO   O12 2960   7.439   4.011   3.929 -0.0397  0.0726  0.0162
    7CHTO    H6 2961   7.458   4.030   3.840 -1.2946  1.1193 -0.0425
    8CHTO  H203 2962   7.999   6.964   0.234  1.1301  2.1134 -2.5685
    8CHTO   O82 2963   7.911   6.999   0.236  0.0742 -0.4049  0.4691
    8CHTO  C123 2964   7.843   6.948   0.358 -0.0531  0.1655 -0.4520
    8CHTO  H227 2965   7.911   6.880   0.412 -0.5672 -0.0343 -0.0466
    8CHTO   O77 2966   7.826   7.064   0.438 -0.3057  0.3546 -0.3921
    8CHTO  C118 2967   7.748   7.051   0.564 -0.3923 -0.3217  0.3714
    8CHTO  H222 2968   7.797   6.978   0.630 -1.6024 -0.1201  1.5252
    8CHTO  C125 2969   7.755   7.190   0.641  0.6377 -0.1159  0.3201
    8CHTO   O84 2970   7.690   7.287   0.552 -0.7329  0.0179  0.0719
    8CHTO  H205 2971   7.599   7.296   0.572 -0.7222 -0.0675  0.1599
    8CHTO  C114 2972   7.610   7.005   0.525 -0.4948  0.3102  0.6256
    8CHTO  H218 2973   7.569   7.068   0.446  1.3900  0.1665 -0.4947
    8CHTO  C116 2974   7.623   6.860   0.463  0.2222 -0.0323 -0.3676
    8CHTO  H220 2975   7.672   6.797   0.541  2.0455  0.1741 -1.3088
    8CHTO   O79 2976   7.495   6.807   0.438 -0.1061  0.0541  0.1822
    8CHTO  H201 2977   7.435   6.818   0.509 -1.5099 -3.1181 -0.3831
    8CHTO  C120 2978   7.708   6.873   0.326  0.1264  0.1127 -0.7194
    8CHTO  H224 2979   7.648   6.921   0.246  1.3328  0.4105 -1.4574
    8CHTO   N21 2980   7.744   6.736   0.274  0.2120  0.2504 -0.2886
    8CHTO  H211 2981   7.830   6.700   0.328  0.3011 -0.1512 -0.7018
    8CHTO  H212 2982   7.770   6.756   0.171 -1.1308  0.0281 -0.6873
    8CHTO   O75 2983   7.536   7.020   0.649  0.2217  0.1390 -0.3312
    8CHTO  C112 2984   7.394   7.093   0.636  0.4417 -0.3891  0.4443
    8CHTO  H216 2985   7.337   7.030   0.566  1.1281 -0.0518 -0.4366
    8CHTO   O73 2986   7.416   7.222   0.587  1.0604 -0.7684 -0.6984
    8CHTO  C113 2987   7.288   7.296   0.566 -0.0525  0.1208 -0.6455
    8CHTO  H217 2988   7.214   7.255   0.495 -0.2392 -0.9681  0.1573
    8CHTO  C124 2989   7.331   7.424   0.495 -0.1156 -0.6455  0.6670
    8CHTO   O83 2990   7.212   7.489   0.460 -0.3565 -0.6636  0.0145
    8CHTO  H204 2991   7.167   7.427   0.405 -1.4261  1.0294 -1.0662
    8CHTO  C109 2992   7.233   7.326   0.705 -0.1221  0.0843 -0.5546
    8CHTO  H213 2993   7.309   7.378   0.765 -0.5521  0.6170 -0.4611
    8CHTO  C110 2994   7.200   7.185   0.781  0.3440  0.0292  0.3048
    8CHTO  H214 2995   7.130   7.126   0.721 -2.1939  2.5537  0.6480
    8CHTO   O78 2996   7.134   7.205   0.906 -0.1091 -0.6309 -0.3371
    8CHTO  H200 2997   7.182   7.175   0.981 -1.1272 -1.9500 -0.1876
    8CHTO  C111 2998   7.328   7.096   0.782 -0.3393  0.3942 -0.2945
    8CHTO  H215 2999   7.406   7.151   0.837 -0.4158  0.7112 -0.5028
    8CHTO   N19 3000   7.314   6.973   0.845 -0.2536  0.1059 -0.2816
    8CHTO  H207 3001   7.410   6.924   0.848  1.0656  2.5447 -1.1400
    8CHTO  H208 3002   7.269   6.974   0.943 -2.1384 -1.3642 -1.0847
    8CHTO   O74 3003   7.111   7.402   0.700 -0.0136 -0.2473 -0.4852
    8CHTO  C115 3004   7.111   7.554   0.793  0.1334  0.3294 -0.2063
    8CHTO  H219 3005   7.072   7.540   0.894  1.6093 -2.6124  0.0338
    8CHTO   O76 3006   7.248   7.606   0.815  0.5679  0.5493 -0.0114
    8CHTO  C122 3007   7.259   7.727   0.893 -0.2291  0.3239 -0.1482
    8CHTO  H226 3008   7.367   7.740   0.904 -0.4092  1.5890  0.2630
    8CHTO  C126 3009   7.191   7.709   1.039  0.0710 -0.5945  0.7794
    8CHTO   O85 3010   7.197   7.833   1.117  0.2881  0.1127  0.4669
    8CHTO  H206 3011   7.122   7.830   1.174  1.0279 -0.3991  1.4269
    8CHTO  C121 3012   7.193   7.840   0.799 -0.0513  0.2066  0.6645
    8CHTO  H225 3013   7.192   7.933   0.859 -0.0527  1.9648 -1.9949
    8CHTO   O81 3014   7.269   7.860   0.680 -0.2049  0.4007  0.4303
    8CHTO  H202 3015   7.246   7.947   0.655  0.3491  0.3469 -0.2792
    8CHTO  C119 3016   7.040   7.809   0.766  0.0907  0.1526 -0.0787
    8CHTO  H223 3017   6.983   7.818   0.859 -1.4967 -1.2901 -0.8856
    8CHTO  C117 3018   7.025   7.664   0.709 -0.2252  0.8154 -0.1271
    8CHTO  H221 3019   7.063   7.654   0.607  0.3371  0.4377  0.1207
    8CHTO   N20 3020   6.890   7.617   0.707  0.4430 -0.7262  0.1241
    8CHTO  H209 3021   6.860   7.593   0.808 -0.6072 -0.4705 -0.1199
    8CHTO  H210 3022   6.836   7.689   0.647 -0.6277 -1.0632  0.6658
    8CHTO   O80 3023   6.969   7.921   0.678 -0.0919 -0.2279 -0.5588
    8CHTO  C103 3024   6.889   8.041   0.747  0.4160 -0.3697  0.4576
    8CHTO  H190 3025   6.802   8.003   0.801  1.7910 -1.7763  1.7263
    8CHTO  C101 3026   6.966   8.128   0.847  0.1807 -0.2189 -0.0868
    8CHTO  H188 3027   7.066   8.143   0.806  0.0252  1.1332 -0.0004
    8CHTO   O68 3028   6.973   8.059   0.981 -0.4010  0.1097 -0.4399
    8CHTO  H168 3029   6.888   8.043   1.017 -0.3675  0.9592  0.0343
    8CHTO   C99 3030   6.903   8.274   0.863 -0.0651 -0.0012  0.9164
    8CHTO  H186 3031   6.800   8.255   0.901  0.1425  0.6890  1.8471
    8CHTO   N17 3032   6.982   8.365   0.960  0.1103 -0.0797 -0.4401
    8CHTO  H174 3033   7.070   8.408   0.916 -0.0093  2.0061  1.2910
    8CHTO  H175 3034   6.920   8.436   1.013  0.7912 -0.3555  0.7434
    8CHTO   C97 3035   6.880   8.343   0.724  0.6856 -0.2840 -0.8225
    8CHTO  H184 3036   6.967   8.362   0.660  0.6581  1.3997 -0.4121
    8CHTO   O64 3037   6.780   8.253   0.665 -0.0121  0.2094 -0.0488
    8CHTO  C104 3038   6.837   8.125   0.624  0.1107  0.3494 -0.1361
    8CHTO  H191 3039   6.917   8.139   0.551 -0.4669  2.2321 -0.4425
    8CHTO  C108 3040   6.736   8.040   0.553  0.2331 -0.2408 -0.3936
    8CHTO   O71 3041   6.699   8.106   0.432  0.0445 -0.7719  0.2612
    8CHTO  H171 3042   6.678   8.038   0.371 -0.1654 -1.7392  1.3744
    8CHTO   O62 3043   6.791   8.464   0.734  0.2896  0.0020 -0.1904
    8CHTO   C91 3044   6.858   8.588   0.703 -0.2544  0.5505  0.2351
    8CHTO  H178 3045   6.967   8.580   0.708 -0.2982 -1.0151 -1.0362
    8CHTO   C92 3046   6.811   8.686   0.809  0.7510 -0.1173  0.3065
    8CHTO  H179 3047   6.701   8.683   0.804  0.6687  1.7734  0.6010
    8CHTO   O66 3048   6.859   8.629   0.936 -0.0041  0.1814 -0.4660
    8CHTO  H166 3049   6.950   8.612   0.923  0.5113  1.7734  0.9242
    8CHTO   C93 3050   6.869   8.833   0.791 -1.0425 -0.2439 -0.0211
    8CHTO  H180 3051   6.975   8.829   0.817 -1.3061 -0.7552  1.0497
    8CHTO   N16 3052   6.803   8.927   0.883 -0.1835  0.0919 -0.2199
    8CHTO  H172 3053   6.698   8.906   0.890 -0.0431 -0.7693 -0.5997
    8CHTO  H173 3054   6.852   8.912   0.979  1.7359  1.7465 -0.8887
    8CHTO   C94 3055   6.848   8.894   0.652 -0.2485 -0.5138 -0.2919
    8CHTO  H181 3056   6.743   8.910   0.629 -0.8217 -1.0963  1.8052
    8CHTO   O61 3057   6.893   8.789   0.554 -0.0782 -0.1535  0.1258
    8CHTO   C95 3058   6.821   8.668   0.563  0.0315 -0.6866 -0.4782
    8CHTO  H182 3059   6.716   8.693   0.573  0.7032  1.8524  0.6077
    8CHTO  C106 3060   6.843   8.580   0.433  0.0287 -0.0448 -0.0795
    8CHTO   O69 3061   6.722   8.507   0.399 -0.0438  0.1557 -0.3471
    8CHTO  H169 3062   6.717   8.461   0.317 -0.2754 -2.7654  1.2304
    8CHTO   O63 3063   6.947   9.038   0.625  0.0174 -0.5665  0.1579
    8CHTO   C96 3064   6.922   9.107   0.495 -0.0321  0.3593 -0.1898
    8CHTO  H183 3065   6.842   9.056   0.442 -0.6220 -1.4786  2.4257
    8CHTO   C98 3066   7.040   9.104   0.397 -0.5897  0.6209  0.3158
    8CHTO  H185 3067   7.128   9.147   0.446  0.5740 -0.1059 -1.0939
    8CHTO   O67 3068   7.074   8.969   0.363  0.4694  0.1565 -0.4150
    8CHTO  H167 3069   7.165   8.951   0.348 -0.0933 -0.9258 -2.7671
    8CHTO  C102 3070   7.011   9.196   0.273  0.2020  0.8741  0.0273
    8CHTO  H189 3071   6.929   9.144   0.222  2.5901 -1.6084 -1.3979
    8CHTO   N18 3072   7.121   9.212   0.171  0.2873 -0.3127  0.2986
    8CHTO  H176 3073   7.089   9.251   0.075  1.0453 -1.2401 -0.3345
    8CHTO  H177 3074   7.176   9.120   0.161  1.1035 -0.0518  2.2524
    8CHTO  C105 3075   6.951   9.332   0.310  0.6434  0.4446 -0.8914
    8CHTO  H192 3076   7.026   9.398   0.352  0.8814 -0.6793  0.5036
    8CHTO   O65 3077   6.845   9.321   0.407  0.9747 -0.6659 -0.2737
    8CHTO  C100 3078   6.878   9.247   0.526 -0.2584  0.2551 -0.3339
    8CHTO  H187 3079   6.964   9.297   0.573 -2.2627  0.6197  3.1039
    8CHTO  C107 3080   6.753   9.261   0.626 -0.8009  0.9970 -0.1219
    8CHTO   O70 3081   6.647   9.168   0.607 -0.2735 -0.5205 -0.5939
    8CHTO  H170 3082   6.566   9.203   0.638  0.2870  0.9794 -0.7846
    8CHTO   O57 3083   6.871   9.376   0.183  0.1386 -0.1366  0.4889
    8CHTO   C85 3084   6.897   9.503   0.106 -0.2127  0.5228  1.0455
    8CHTO  H157 3085   7.005   9.527   0.120  0.2990 -1.6773  0.9483
    8CHTO   C83 3086   6.831   9.623   0.171 -0.1537  0.1649  0.0571
    8CHTO  H155 3087   6.873   9.633   0.272 -0.0022  0.4285 -0.0327
    8CHTO   O56 3088   6.689   9.607   0.191  0.6844  0.4832 -0.5936
    8CHTO  H135 3089   6.668   9.519   0.216  1.7693 -0.7573 -3.8315
    8CHTO   C81 3090   6.873   9.745   0.086 -0.3972 -0.2322 -0.4221
    8CHTO  H153 3091   6.982   9.745   0.074 -0.2146  1.0153  1.1203
    8CHTO   N14 3092   6.843   9.875   0.148 -0.4815 -0.9969  0.1945
    8CHTO  H141 3093   6.837   9.862   0.254 -1.0205  0.7374  0.3943
    8CHTO  H142 3094   6.921   9.944   0.124 -1.5734  0.4139  0.6623
    8CHTO   C79 3095   6.809   9.725  -0.055 -0.1028  0.2060 -0.2273
    8CHTO  H151 3096   6.850   9.803  -0.120 -0.1500  0.5436  0.1500
    8CHTO   O52 3097   6.852   9.601  -0.127 -0.3504  0.3574 -0.0919
    8CHTO   C86 3098   6.865   9.479  -0.043  1.1322 -0.0330 -0.1239
    8CHTO  H158 3099   6.765   9.431  -0.045  0.9082  0.2890  2.5584
    8CHTO   C90 3100   6.958   9.375  -0.116 -0.4724  0.6141 -0.1775
    8CHTO   O60 3101   6.889   9.300  -0.216 -0.4081  0.3986 -0.4336
    8CHTO  H138 3102   6.944   9.235  -0.254  0.4103 -0.1851  1.7090
    8CHTO   O50 3103   6.666   9.725  -0.057  0.2549  0.3315  0.5980
    8CHTO   C73 3104   6.541   9.750  -0.123  0.2446 -0.4937  0.2162
    8CHTO  H145 3105   6.544   9.730  -0.231 -0.1101 -0.2220  0.1550
    8CHTO   C74 3106   6.505   9.900  -0.110  0.4381  0.2039  0.2059
    8CHTO  H146 3107   6.587   9.955  -0.157 -0.4520 -0.5170 -2.2623
    8CHTO   O54 3108   6.388   9.919  -0.187  0.0919  0.2876 -0.5186
    8CHTO  H133 3109   6.400   9.902  -0.279  1.0780 -0.2286 -0.3082
    8CHTO   C75 3110   6.481   9.938   0.041 -0.0090  0.0341 -0.6495
    8CHTO  H147 3111   6.576   9.932   0.096 -0.5208  2.1763  0.5564
    8CHTO   N13 3112   6.442  10.078   0.070 -0.1961  0.3529  0.4128
    8CHTO  H139 3113   6.488  10.141  -0.004 -0.1940 -0.3673 -0.2017
    8CHTO  H140 3114   6.458  10.107   0.173 -0.9425  0.1713  0.5788
    8CHTO   C76 3115   6.369   9.836   0.102  0.5658  0.4136  0.1282
    8CHTO  H148 3116   6.272   9.846   0.054 -0.2781  1.0939  1.9352
    8CHTO   O49 3117   6.405   9.693   0.074  0.2962  0.0288  0.1937
    8CHTO   C77 3118   6.438   9.664  -0.064  1.1313 -0.0927  0.7493
    8CHTO  H149 3119   6.343   9.682  -0.115  1.1858  1.1792  1.0640
    8CHTO   C88 3120   6.457   9.518  -0.094  0.5121  0.3423 -0.1534
    8CHTO   O58 3121   6.552   9.483  -0.224  0.5785  0.0021 -0.0978
    8CHTO  H136 3122   6.525   9.523  -0.305  2.5535  0.2455 -0.6679
    8CHTO   O51 3123   6.360   9.837   0.258 -0.2552 -0.6800  0.6010
    8CHTO   C78 3124   6.244   9.732   0.329  0.3835  0.3360 -0.1932
    8CHTO  H150 3125   6.197   9.660   0.260  0.9096 -0.8214  0.6393
    8CHTO   C80 3126   6.144   9.814   0.413  0.4474  0.5891  0.3799
    8CHTO  H152 3127   6.203   9.871   0.487  1.3171 -2.4524  2.1359
    8CHTO   O55 3128   6.093   9.913   0.321  0.3687 -0.3017 -0.8757
    8CHTO  H134 3129   6.015   9.954   0.353  0.7334 -0.7427  0.6275
    8CHTO   C84 3130   6.027   9.727   0.477  0.6231 -0.9010 -0.2474
    8CHTO  H156 3131   5.956   9.696   0.400 -0.9735  1.4968  0.1906
    8CHTO   N15 3132   5.940   9.806   0.574  0.4050 -0.1835  0.4851
    8CHTO  H143 3133   5.996   9.826   0.663  2.0053 -0.5246 -0.4468
    8CHTO  H144 3134   5.842   9.767   0.595 -2.0717  5.1147 -0.4857
    8CHTO   C87 3135   6.092   9.609   0.553 -1.0560 -0.1914 -0.3016
    8CHTO  H159 3136   6.146   9.652   0.637  0.5895  0.0518 -1.4623
    8CHTO   O53 3137   6.192   9.542   0.468  1.0333  0.4037  0.2515
    8CHTO   C82 3138   6.300   9.627   0.426 -0.1705  0.0298  0.7074
    8CHTO  H154 3139   6.345   9.672   0.514 -0.4379 -0.8022  1.2831
    8CHTO   C89 3140   6.414   9.544   0.361  0.4216 -0.0981  0.4426
    8CHTO   O59 3141   6.378   9.452   0.258 -0.1060 -0.0259  0.3185
    8CHTO  H137 3142   6.374   9.363   0.285 -1.5961  0.5760  2.2258
    8CHTO   O45 3143   5.978   9.499   0.606  0.1177  0.2820  0.3608
    8CHTO   C67 3144   6.041   9.391   0.672  0.3262  0.0567 -0.4431
    8CHTO  H124 3145   6.141   9.367   0.637  0.1373  0.4420 -1.2422
    8CHTO   C65 3146   6.049   9.417   0.827  0.0137  0.7183 -0.5899
    8CHTO  H122 3147   5.983   9.500   0.853 -0.0150  0.1577  1.2298
    8CHTO   O44 3148   6.179   9.449   0.860 -0.6555  0.0084 -0.1021
    8CHTO  H102 3149   6.204   9.531   0.823 -1.5426 -0.1484 -1.0500
    8CHTO   C63 3150   5.993   9.299   0.919  0.5292 -0.0578  0.8872
    8CHTO  H120 3151   5.885   9.300   0.905  0.7751 -1.7688 -1.4426
    8CHTO   N11 3152   6.016   9.304   1.064 -0.3903  0.4754  0.3194
    8CHTO  H108 3153   6.023   9.209   1.111  1.0233 -0.4858 -1.7854
    8CHTO  H109 3154   6.110   9.339   1.102 -0.6632  0.8329  0.6793
    8CHTO   C61 3155   6.046   9.170   0.855 -0.1545 -0.5097 -0.0261
    8CHTO  H118 3156   6.014   9.082   0.913 -1.4040  1.2655  2.0506
    8CHTO   O40 3157   5.980   9.149   0.712  0.5760 -0.4025  0.5188
    8CHTO   C68 3158   5.954   9.273   0.633 -0.3731  0.6525  0.7840
    8CHTO  H125 3159   5.846   9.294   0.645 -0.6360 -1.0543  1.6138
    8CHTO   C72 3160   5.978   9.231   0.482  0.3122 -0.1006 -0.6590
    8CHTO   O48 3161   5.934   9.323   0.387  0.0708 -0.1149  0.4179
    8CHTO  H105 3162   5.995   9.394   0.381  1.8752 -1.5428  1.3740
    8CHTO   O38 3163   6.191   9.168   0.832 -0.2888  0.9028  0.6557
    8CHTO   C55 3164   6.242   9.039   0.784 -0.1910 -0.4643  0.6492
    8CHTO  H112 3165   6.157   8.999   0.729  0.1139 -0.3977  0.1314
    8CHTO   C56 3166   6.291   8.939   0.897 -0.5926 -0.3408  0.0378
    8CHTO  H113 3167   6.364   9.002   0.950 -1.1179  1.5050 -1.3831
    8CHTO   O42 3168   6.183   8.913   0.990 -0.0635 -0.2661 -0.6611
    8CHTO  H100 3169   6.157   8.985   1.045  0.1556 -0.3688 -0.4242
    8CHTO   C57 3170   6.354   8.804   0.838 -0.1947 -0.5938  0.5459
    8CHTO  H114 3171   6.273   8.738   0.806 -0.2935  0.4944 -1.4688
    8CHTO   N10 3172   6.430   8.733   0.942 -0.1408 -0.1808 -0.5967
    8CHTO  H106 3173   6.435   8.627   0.918 -0.0326 -1.5641  4.9765
    8CHTO  H107 3174   6.378   8.744   1.036  0.8634 -1.7661  0.1701
    8CHTO   C58 3175   6.442   8.830   0.713  0.2579  0.2659  0.7925
    8CHTO  H115 3176   6.541   8.870   0.744  0.7638 -0.0865 -0.3490
    8CHTO   O37 3177   6.379   8.920   0.623 -0.1355  0.1679 -0.1692
    8CHTO   C59 3178   6.354   9.051   0.670 -0.1290  1.1328 -0.5203
    8CHTO  H116 3179   6.447   9.090   0.712  1.0910 -2.3394  0.1548
    8CHTO   C70 3180   6.328   9.131   0.551  0.4191 -0.2875  0.2979
    8CHTO   O46 3181   6.329   9.276   0.565  0.7082 -0.0860  0.1915
    8CHTO  H103 3182   6.401   9.314   0.518 -0.2313  0.9398 -0.4591
    8CHTO   O39 3183   6.471   8.687   0.633  0.2995  0.0427 -0.2284
    8CHTO   C60 3184   6.361   8.646   0.540 -0.8385  0.5029 -0.3455
    8CHTO  H117 3185   6.261   8.679   0.569 -1.1323 -0.9172  0.2948
    8CHTO   C62 3186   6.379   8.699   0.398  0.3480  0.2390  0.3775
    8CHTO  H119 3187   6.389   8.809   0.388 -0.5281  0.1228 -2.0756
    8CHTO   O43 3188   6.498   8.650   0.330  0.2995 -1.2027  0.2220
    8CHTO  H101 3189   6.566   8.698   0.373 -0.1765 -0.6660  0.3908
    8CHTO   C66 3190   6.246   8.661   0.321  0.4994  0.1058 -0.0153
    8CHTO  H123 3191   6.162   8.690   0.383  0.7376 -0.6223  0.6554
    8CHTO   N12 3192   6.217   8.732   0.192  0.0826 -0.1639  0.6334
    8CHTO  H110 3193   6.291   8.810   0.180 -0.4597  0.5673  1.8687
    8CHTO  H111 3194   6.122   8.783   0.200  1.0809  2.0957 -1.2237
    8CHTO   C69 3195   6.235   8.507   0.310  0.2336 -0.4533  0.2538
    8CHTO  H126 3196   6.317   8.478   0.241 -0.8756  1.0402 -1.7163
    8CHTO   O41 3197   6.245   8.438   0.446  0.0324  0.1939 -0.6815
    8CHTO   C64 3198   6.356   8.487   0.536 -0.6381 -0.1898 -0.2862
    8CHTO  H121 3199   6.453   8.456   0.492 -0.2020  2.7179 -1.5027
    8CHTO   C71 3200   6.337   8.425   0.678 -0.1263 -0.0076  0.1172
    8CHTO   O47 3201   6.458   8.423   0.748 -0.4197 -0.0152  0.0525
    8CHTO  H104 3202   6.481   8.508   0.781 -0.4873 -0.7883  2.1996
    8CHTO   O34 3203   6.094   8.464   0.218 -0.0136  0.3763  0.2762
    8CHTO   C49 3204   5.961   8.429   0.263  0.1841 -0.3750 -0.5451
    8CHTO   H91 3205   5.972   8.331   0.309 -2.9572 -0.5988 -0.1456
    8CHTO   C47 3206   5.861   8.430   0.143 -0.2537  0.2400  0.1122
    8CHTO   H89 3207   5.766   8.383   0.175  1.0229 -0.9056  2.3720
    8CHTO   O33 3208   5.922   8.339   0.048 -0.4548  0.4661 -0.0273
    8CHTO   H70 3209   5.879   8.255   0.046  0.6263 -0.1541  1.8020
    8CHTO   C45 3210   5.839   8.578   0.099  1.2117 -0.1343  0.4712
    8CHTO   H87 3211   5.935   8.613   0.059  1.7150 -4.2252 -2.2438
    8CHTO    N8 3212   5.738   8.585  -0.012 -0.5898  0.1287 -0.1129
    8CHTO   H75 3213   5.731   8.692  -0.030 -0.0601 -0.0440 -1.4508
    8CHTO   H76 3214   5.753   8.535  -0.107  1.3285  0.2535  0.0959
    8CHTO   C43 3215   5.816   8.684   0.219  0.9433 -0.0606  0.5621
    8CHTO   H85 3216   5.842   8.781   0.177  1.5478 -0.6430 -0.4293
    8CHTO   O29 3217   5.889   8.658   0.342  0.2058 -0.1274  0.0715
    8CHTO   C50 3218   5.911   8.519   0.378  0.0484 -0.6325  0.3919
    8CHTO   H92 3219   5.981   8.529   0.463 -2.2723  2.7028  2.0410
    8CHTO   C54 3220   5.775   8.469   0.451 -0.2503  0.0291 -0.1779
    8CHTO   O36 3221   5.782   8.338   0.501  1.0756  0.0624  0.0971
    8CHTO   H72 3222   5.853   8.281   0.476  2.4453  2.2721 -1.1674
    8CHTO   O27 3223   5.676   8.702   0.253 -0.0895 -0.1237  0.6447
    8CHTO   C37 3224   5.591   8.803   0.309 -0.4890 -0.0614 -0.0160
    8CHTO   H79 3225   5.490   8.764   0.329  0.6644 -2.7463  0.7175
    8CHTO   C38 3226   5.645   8.853   0.443  0.2369 -0.6736  0.2029
    8CHTO   H80 3227   5.748   8.885   0.421  0.0518 -0.8267 -0.9218
    8CHTO   O31 3228   5.640   8.756   0.540  0.2829 -0.2196  0.7299
    8CHTO   H68 3229   5.669   8.782   0.625 -2.3153  1.7248  1.0852
    8CHTO   C39 3230   5.570   8.986   0.498  0.1233  1.0146  0.1043
    8CHTO   H81 3231   5.467   8.960   0.522  0.1982  0.9242  0.3264
    8CHTO    N7 3232   5.632   9.059   0.620  0.3225 -0.1190  0.0309
    8CHTO   H73 3233   5.564   9.051   0.704 -1.7729  2.9935 -1.3024
    8CHTO   H74 3234   5.725   9.014   0.653  0.1887 -1.1968 -1.0411
    8CHTO   C40 3235   5.564   9.091   0.380  0.1729 -0.2011 -0.1305
    8CHTO   H82 3236   5.661   9.129   0.347  0.1076 -1.1967 -1.5055
    8CHTO   O26 3237   5.498   9.028   0.275 -0.6446  0.1285  0.5044
    8CHTO   C41 3238   5.583   8.927   0.215 -0.4644 -0.3063 -0.7654
    8CHTO   H83 3239   5.685   8.965   0.199 -0.5711  1.1167  1.6819
    8CHTO   C52 3240   5.529   8.896   0.077 -0.4954 -0.5351 -0.2550
    8CHTO   O35 3241   5.468   9.010  -0.012 -0.1453 -0.1575 -0.2665
    8CHTO   H71 3242   5.375   9.016   0.003 -0.1195  3.0515 -0.8748
    8CHTO   O28 3243   5.482   9.209   0.410 -0.1108 -0.0952  0.3916
    8CHTO   C42 3244   5.466   9.330   0.333 -0.3598  0.6957  1.0557
    8CHTO   H84 3245   5.396   9.389   0.393 -1.0928  2.5100 -1.5147
    8CHTO   C44 3246   5.402   9.312   0.194  0.1108  0.4523 -0.1584
    8CHTO   H86 3247   5.463   9.246   0.134  0.2110 -0.1914  0.6403
    8CHTO   O32 3248   5.267   9.256   0.222 -0.0244 -0.0240 -0.0662
    8CHTO   H69 3249   5.209   9.326   0.246  1.5221  0.3857  2.6300
    8CHTO   C48 3250   5.395   9.442   0.105  0.8852 -0.5618 -0.0638
    8CHTO   H90 3251   5.317   9.508   0.143  1.2019  0.4773 -1.1808
    8CHTO    N9 3252   5.363   9.406  -0.038  0.1863  0.0688  0.6409
    8CHTO   H77 3253   5.260   9.374  -0.032  0.5219 -1.0548  0.5853
    8CHTO   H78 3254   5.374   9.491  -0.104 -1.1829 -0.2617 -0.0416
    8CHTO   C51 3255   5.535   9.517   0.113  0.2051  0.4780 -0.3200
    8CHTO   H93 3256   5.611   9.461   0.059  1.0101 -1.2741  2.5036
    8CHTO   O30 3257   5.572   9.536   0.246  0.5232  0.9075 -0.0594
    8CHTO   C46 3258   5.599   9.410   0.326 -0.0534  0.1375  0.3444
    8CHTO   H88 3259   5.675   9.348   0.278 -0.7492 -1.2765  1.0431
    8CHTO   C53 3260   5.650   9.449   0.462  0.2917  0.1184 -0.2865
    8CHTO   O72 3261   5.567   9.545   0.526  0.0710  0.0434 -0.1437
    8CHTO  H199 3262   5.512   9.588   0.465 -1.2189 -0.8411  0.3786
    8CHTO   O22 3263   5.528   9.658   0.075 -0.3007 -0.2677 -0.2120
    8CHTO   C31 3264   5.629   9.737  -0.001  0.5002  0.4016 -0.7858
    8CHTO   H59 3265   5.578   9.835  -0.009 -1.1466 -0.1413  2.0635
    8CHTO   C29 3266   5.764   9.764   0.059 -0.3708 -0.0365  0.2039
    8CHTO   H57 3267   5.813   9.670   0.089  1.8101  1.5117  1.5634
    8CHTO   O21 3268   5.744   9.833   0.183  0.6395 -0.2040  0.5510
    8CHTO   H37 3269   5.798   9.799   0.252  0.1917  0.8585  1.4465
    8CHTO   C27 3270   5.860   9.856  -0.030 -0.0088  0.5112  0.9630
    8CHTO   H55 3271   5.800   9.944  -0.056  0.1336  0.0844 -0.8442
    8CHTO    N5 3272   5.986   9.905   0.040 -0.5478  0.0408 -0.3898
    8CHTO   H43 3273   6.069   9.924  -0.026 -1.1163 -1.1823 -1.4847
    8CHTO   H44 3274   6.017   9.846   0.125 -0.7851 -0.0824 -0.3864
    8CHTO   C25 3275   5.878   9.765  -0.157  0.4397  0.3064  0.4013
    8CHTO   H53 3276   5.922   9.672  -0.117  0.0682  0.5123  1.2896
    8CHTO   O17 3277   5.747   9.752  -0.222  0.1795 -0.3087  0.1053
    8CHTO   C32 3278   5.650   9.682  -0.151  0.9284 -0.0846 -0.2455
    8CHTO   H60 3279   5.684   9.578  -0.150 -2.2707 -1.1880 -0.9413
    8CHTO   C36 3280   5.515   9.684  -0.229  0.5006  0.3896  0.0702
    8CHTO   O25 3281   5.529   9.627  -0.362 -0.8645 -0.2268  0.0370
    8CHTO   H40 3282   5.577   9.547  -0.367  0.6475  0.7082 -0.7077
    8CHTO   O15 3283   5.982   9.823  -0.264  0.0791 -0.0180  0.1709
    8CHTO   C19 3284   6.045   9.802  -0.391 -0.0806 -0.9042  0.0396
    8CHTO   H47 3285   5.960   9.782  -0.458 -0.7610  0.1311  0.5585
    8CHTO   C20 3286   6.132   9.926  -0.430  0.7555  0.2555  0.6400
    8CHTO   H48 3287   6.205   9.951  -0.351  0.8352 -0.1485  0.6989
    8CHTO   O19 3288   6.052  10.041  -0.456 -0.3090  0.6295  0.4245
    8CHTO   H35 3289   6.022  10.063  -0.370 -1.9326 -2.9324  0.8586
    8CHTO   C21 3290   6.220   9.899  -0.558  0.2095 -0.7173  0.3652
    8CHTO   H49 3291   6.152   9.879  -0.641 -1.9347  0.0654  1.8936
    8CHTO    N4 3292   6.313  10.014  -0.594 -0.4599 -0.5227  0.2590
    8CHTO   H41 3293   6.374  10.000  -0.682 -0.2083 -1.1759  0.5328
    8CHTO   H42 3294   6.254  10.103  -0.611 -0.1933 -0.3215  0.3752
    8CHTO   C22 3295   6.296   9.765  -0.528  0.1860  0.2856  0.3037
    8CHTO   H50 3296   6.353   9.785  -0.437 -0.6034  1.1172  0.6220
    8CHTO   O14 3297   6.203   9.654  -0.504 -0.0836 -0.3319  0.1026
    8CHTO   C23 3298   6.129   9.668  -0.380 -0.5188  0.1574  0.2743
    8CHTO   H51 3299   6.201   9.670  -0.296 -0.5148 -1.1446  0.3201
    8CHTO   C34 3300   6.044   9.544  -0.361  0.6591 -0.0100 -1.1403
    8CHTO   O23 3301   6.144   9.436  -0.339  0.3181  0.3078  0.1743
    8CHTO   H38 3302   6.126   9.384  -0.263  0.0017  1.2887  0.7914
    8CHTO   O16 3303   6.373   9.721  -0.637 -0.1188  0.0814  0.0757
    8CHTO   C24 3304   6.479   9.607  -0.568  0.0061 -0.5102 -0.1258
    8CHTO   H52 3305   6.450   9.578  -0.468  2.9080  1.0868  1.2559
    8CHTO   C26 3306   6.613   9.679  -0.562 -0.2682  0.0245  0.2745
    8CHTO   H54 3307   6.632   9.718  -0.664 -0.6139  0.1852  0.2724
    8CHTO   O20 3308   6.604   9.794  -0.464  0.3943  0.4834  0.3053
    8CHTO   H36 3309   6.614   9.766  -0.375  0.2430  0.1359  0.2109
    8CHTO   C30 3310   6.722   9.568  -0.525  0.4949  0.1106  0.3037
    8CHTO   H58 3311   6.699   9.522  -0.428 -0.5243 -1.1400 -0.5125
    8CHTO    N6 3312   6.852   9.636  -0.516 -0.2362  0.4245  0.4489
    8CHTO   H45 3313   6.918   9.558  -0.484  1.7277  1.3856 -1.1826
    8CHTO   H46 3314   6.838   9.703  -0.432  2.2545  0.4635  0.8653
    8CHTO   C33 3315   6.716   9.455  -0.633 -0.6845  0.9548  0.4928
    8CHTO   H61 3316   6.734   9.505  -0.729 -1.2238  4.4586  2.1325
    8CHTO   O18 3317   6.588   9.392  -0.630 -0.1631  0.5447 -0.3151
    8CHTO   C28 3318   6.483   9.482  -0.662 -0.2757  0.4981  0.1268
    8CHTO   H56 3319   6.482   9.512  -0.766  0.2225  0.3776  0.0894
    8CHTO   C35 3320   6.353   9.405  -0.630  0.3568 -0.0791  0.3587
    8CHTO   O24 3321   6.351   9.262  -0.666  0.1910 -0.1610 -0.0032
    8CHTO   H39 3322   6.410   9.217  -0.609 -1.5089 -1.8880  0.4519
    8CHTO    O9 3323   6.824   9.357  -0.613 -0.6858 -0.2206 -0.0188
    8CHTO   C13 3324   6.869   9.260  -0.734 -0.0675 -0.3269  0.4885
    8CHTO   H26 3325   6.902   9.318  -0.823  0.2529  0.9435  1.4234
    8CHTO   C11 3326   6.748   9.161  -0.768 -0.1363 -0.5382  0.1330
    8CHTO   H24 3327   6.675   9.222  -0.824  2.0462  0.1542 -2.0387
    8CHTO    O8 3328   6.692   9.110  -0.643 -0.0913 -0.3127 -0.3365
    8CHTO    H3 3329   6.614   9.063  -0.662 -1.5134  2.3962 -1.4783
    8CHTO    C9 3330   6.803   9.048  -0.862 -0.1464  0.1244 -0.0984
    8CHTO   H22 3331   6.847   9.096  -0.951 -1.1726 -0.2785 -0.8418
    8CHTO    N2 3332   6.698   8.961  -0.910  0.1952 -0.3887 -0.2633
    8CHTO   H10 3333   6.639   9.012  -0.984 -1.9961 -1.8126  0.4690
    8CHTO   H11 3334   6.742   8.868  -0.941 -1.1642 -1.1119 -0.0562
    8CHTO    C7 3335   6.922   8.973  -0.789 -0.2155 -0.3564  0.2705
    8CHTO   H20 3336   6.958   8.911  -0.874  0.0076  0.1230  0.0125
    8CHTO    O4 3337   7.025   9.069  -0.762  0.4058 -0.0825 -0.7221
    8CHTO   C14 3338   7.000   9.182  -0.681 -0.5331  0.0373 -0.0232
    8CHTO   H27 3339   7.080   9.257  -0.698  1.3618 -1.8134  0.5771
    8CHTO   C18 3340   7.007   9.142  -0.528  0.3163 -0.0990  0.4780
    8CHTO   O13 3341   7.143   9.117  -0.491 -0.3670 -0.2297 -1.0254
    8CHTO    H7 3342   7.152   9.034  -0.448  4.3407  0.7073  0.1713
    8CHTO    O2 3343   6.892   8.873  -0.659 -0.1767 -0.1006  0.1102
    8CHTO    C1 3344   6.952   8.745  -0.653  0.2652  0.8010  0.0682
    8CHTO   H14 3345   6.955   8.704  -0.550  0.4886  0.9178  0.1077
    8CHTO    C2 3346   7.101   8.746  -0.704  0.3216 -0.0830  0.1884
    8CHTO   H15 3347   7.106   8.770  -0.811  0.8449 -1.2815 -0.0663
    8CHTO    O6 3348   7.175   8.842  -0.624  0.0122  0.2529 -0.1557
    8CHTO    H1 3349   7.261   8.852  -0.659  0.3509 -2.0213 -0.0485
    8CHTO    C3 3350   7.168   8.600  -0.698  0.2004 -0.6674 -0.4964
    8CHTO   H16 3351   7.160   8.556  -0.597 -1.0730 -0.7259 -0.6210
    8CHTO    N1 3352   7.314   8.583  -0.741 -0.5338  0.9924 -0.3717
    8CHTO    H8 3353   7.372   8.530  -0.668 -0.4204  1.7156  0.0653
    8CHTO    H9 3354   7.357   8.682  -0.740 -1.0986  1.2359  0.9125
    8CHTO    C4 3355   7.065   8.510  -0.781 -0.1129 -0.4235 -0.5440
    8CHTO   H17 3356   7.076   8.525  -0.888  1.2829  2.3689 -0.0592
    8CHTO    O1 3357   6.925   8.519  -0.744  0.0158  0.6505  0.0430
    8CHTO    C5 3358   6.860   8.646  -0.732 -0.4470 -0.1100  0.0160
    8CHTO   H18 3359   6.853   8.673  -0.838 -1.0632 -2.1457 -0.4950
    8CHTO   C16 3360   6.717   8.631  -0.669 -0.4555  0.2138 -0.2847
    8CHTO   O11 3361   6.725   8.564  -0.550 -0.6527 -0.4907 -0.1595
    8CHTO    H5 3362   6.643   8.554  -0.506  0.9588 -1.3564  2.7209
    8CHTO    O3 3363   7.094   8.373  -0.745  0.4404 -0.0415 -0.0524
    8CHTO    C6 3364   7.050   8.262  -0.846  0.0061 -0.7463  0.1317
    8CHTO   H19 3365   6.980   8.299  -0.921  1.3398  1.1051 -0.2314
    8CHTO    C8 3366   7.185   8.223  -0.916  0.2526 -0.1455 -0.2562
    8CHTO   H21 3367   7.246   8.178  -0.837 -0.5267 -0.9704 -0.1194
    8CHTO    O7 3368   7.245   8.338  -0.979  0.0908 -0.2519  0.5699
    8CHTO    H2 3369   7.336   8.338  -0.958  0.0249  1.9356  0.9547
    8CHTO   C12 3370   7.158   8.103  -1.013 -0.4634 -0.3043  0.4992
    8CHTO   H25 3371   7.092   8.144  -1.093 -0.1034  1.6483  1.1728
    8CHTO    N3 3372   7.291   8.057  -1.079 -0.5037 -0.0453 -0.2725
    8CHTO   H12 3373   7.304   8.109  -1.173  0.4026 -0.6511 -0.4979
    8CHTO   H13 3374   7.295   7.949  -1.081  0.6094 -0.0188  0.0706
    8CHTO   C15 3375   7.078   7.984  -0.938 -0.6715  0.1384 -0.6305
    8CHTO   H28 3376   7.140   7.932  -0.865  1.0426  0.3099 -1.9418
    8CHTO   O10 3377   7.034   7.881  -1.043 -0.1877 -0.4967 -0.5402
    8CHTO    H4 3378   6.954   7.841  -1.014  0.0352 -1.0687 -0.6965
    8CHTO    O5 3379   6.956   8.039  -0.886  0.4097  0.0868 -0.8456
    8CHTO   C10 3380   6.989   8.136  -0.784  0.0823 -0.1153  0.1053
    8CHTO   H23 3381   7.049   8.085  -0.708  1.1672  0.8243 -0.1076
    8CHTO   C17 3382   6.857   8.171  -0.710 -0.2587  0.2138 -0.3299
    8CHTO   O12 3383   6.884   8.259  -0.596 -0.3797 -0.6278  0.1124
    8CHTO    H6 3384   6.935   8.216  -0.529 -0.6236 -0.6661  0.2720
    9CHTO  H203 3385   6.933   4.701   4.165 -1.2161 -0.1501  1.4038
    9CHTO   O82 3386   6.979   4.624   4.139  0.2600  0.9620  0.6652
    9CHTO  C123 3387   7.113   4.657   4.117  0.2110 -0.2695 -0.1478
    9CHTO  H227 3388   7.154   4.704   4.208  1.7419 -2.2646  0.2211
    9CHTO   O77 3389   7.165   4.525   4.104  0.5404 -0.0873 -0.0051
    9CHTO  C118 3390   7.308   4.539   4.077  0.4412 -0.6186 -0.3894
    9CHTO  H222 3391   7.360   4.613   4.140 -0.0953 -0.3144 -0.3053
    9CHTO  C125 3392   7.366   4.397   4.115 -0.6249 -0.1403 -0.3517
    9CHTO   O84 3393   7.389   4.392   4.254  0.2052  0.1169 -0.4513
    9CHTO  H205 3394   7.481   4.382   4.273 -0.1598 -1.6649  0.5364
    9CHTO  C114 3395   7.323   4.579   3.930 -0.1838  0.7604 -0.1484
    9CHTO  H218 3396   7.258   4.519   3.867 -0.9573 -0.0994  1.4493
    9CHTO  C116 3397   7.258   4.717   3.903  0.2460  0.1968  0.0887
    9CHTO  H220 3398   7.327   4.799   3.930 -0.0122  1.2143 -2.2638
    9CHTO   O79 3399   7.231   4.740   3.765  0.2406 -0.5277  0.0293
    9CHTO  H201 3400   7.163   4.688   3.728 -0.6255 -0.0555  0.9669
    9CHTO  C120 3401   7.125   4.741   3.984  0.6176 -0.1860  0.1559
    9CHTO  H224 3402   7.044   4.719   3.911  1.4462  0.3203 -0.9135
    9CHTO   N21 3403   7.108   4.884   4.020  0.3461 -0.9292  0.4820
    9CHTO  H211 3404   7.169   4.958   3.970 -1.3014 -0.5012 -0.9237
    9CHTO  H212 3405   7.006   4.920   4.012 -0.1202 -2.6093 -1.5805
    9CHTO   O75 3406   7.458   4.561   3.881 -0.0613 -0.3584 -0.3638
    9CHTO  C112 3407   7.465   4.512   3.722  0.5024  0.3192 -0.0705
    9CHTO  H216 3408   7.378   4.560   3.674  0.2985 -0.3764 -0.3979
    9CHTO   O73 3409   7.454   4.366   3.724 -0.4429 -0.0174  0.3577
    9CHTO  C113 3410   7.470   4.300   3.600 -0.1381 -0.2872  0.1244
    9CHTO  H217 3411   7.383   4.323   3.535  0.4528 -1.2259 -1.0388
    9CHTO  C124 3412   7.472   4.145   3.630  0.3708  0.3606 -0.3357
    9CHTO   O83 3413   7.345   4.089   3.651  0.2951 -0.1690 -0.8701
    9CHTO  H204 3414   7.355   4.001   3.682  0.3632  0.9087  2.4648
    9CHTO  C109 3415   7.599   4.338   3.518  0.1651  0.3424 -0.4260
    9CHTO  H213 3416   7.681   4.303   3.582  0.5638  0.0969 -1.0657
    9CHTO  C110 3417   7.610   4.493   3.517 -0.3281 -0.6454  0.6082
    9CHTO  H214 3418   7.526   4.524   3.455  0.5243  0.3528 -0.0543
    9CHTO   O78 3419   7.740   4.528   3.459  0.1335 -0.5194  0.4817
    9CHTO  H200 3420   7.752   4.507   3.368  1.4958  0.0599  0.5261
    9CHTO  C111 3421   7.597   4.553   3.656 -0.7261  0.3050  0.4993
    9CHTO  H215 3422   7.673   4.504   3.718  1.4844  1.4446 -1.2331
    9CHTO   N19 3423   7.618   4.700   3.673  0.3095  0.5835 -0.0390
    9CHTO  H207 3424   7.707   4.723   3.730 -2.0074  1.2358  3.4242
    9CHTO  H208 3425   7.606   4.744   3.575 -1.6854  0.4945  0.1525
    9CHTO   O74 3426   7.605   4.272   3.393 -0.7104  0.7130  0.1207
    9CHTO  C115 3427   7.745   4.221   3.342  0.5515  0.1761  0.2173
    9CHTO  H219 3428   7.825   4.292   3.363  0.3192  1.0907 -1.8028
    9CHTO   O76 3429   7.786   4.088   3.417  0.4264  0.6353  0.5732
    9CHTO  C122 3430   7.722   3.969   3.376  0.0132  0.2256  0.5565
    9CHTO  H226 3431   7.623   3.967   3.421  0.1019  2.0268  0.8877
    9CHTO  C126 3432   7.794   3.851   3.442  0.2351 -0.4587  0.4907
    9CHTO   O85 3433   7.766   3.841   3.579  0.1332 -0.0275  0.3435
    9CHTO  H206 3434   7.681   3.873   3.604 -0.9040 -3.7733  2.0077
    9CHTO  C121 3435   7.707   3.951   3.219  0.1294  0.5307 -0.5235
    9CHTO  H225 3436   7.810   3.935   3.179  0.5731 -0.8871  1.1172
    9CHTO   O81 3437   7.644   3.828   3.191  0.9329  0.0783 -0.2266
    9CHTO  H202 3438   7.559   3.829   3.230  0.5816 -2.6647 -0.8016
    9CHTO  C119 3439   7.641   4.083   3.155 -0.4291 -0.4175  0.3340
    9CHTO  H223 3440   7.649   4.074   3.046  1.2830 -1.9469  0.5660
    9CHTO  C117 3441   7.732   4.207   3.187  0.1732  0.1709 -0.3825
    9CHTO  H221 3442   7.690   4.301   3.152 -0.0714  0.0966 -0.2937
    9CHTO   N20 3443   7.870   4.199   3.124 -0.6136 -0.2047  0.0878
    9CHTO  H209 3444   7.946   4.236   3.191 -1.3289  1.6658 -0.0914
    9CHTO  H210 3445   7.890   4.242   3.027  2.2949 -0.0964  0.7123
    9CHTO   O80 3446   7.484   4.109   3.177 -0.0394 -0.0021 -0.0284
    9CHTO  C103 3447   7.404   4.214   3.069  0.3217 -0.0011 -0.0540
    9CHTO  H190 3448   7.442   4.316   3.072 -0.8200  0.4282  0.0474
    9CHTO  C101 3449   7.400   4.172   2.917  0.3363 -0.3214 -0.4854
    9CHTO  H188 3450   7.353   4.074   2.917 -1.4086  0.4852 -0.4272
    9CHTO   O68 3451   7.538   4.157   2.861 -0.6885  0.3306  0.4633
    9CHTO  H168 3452   7.547   4.072   2.822 -0.6739  0.0327  1.1208
    9CHTO   C99 3453   7.311   4.270   2.833 -0.4050  0.1614  0.3157
    9CHTO  H186 3454   7.358   4.370   2.822  0.7880 -0.5884 -1.5794
    9CHTO   N17 3455   7.288   4.226   2.696 -0.0878 -0.3424  0.3657
    9CHTO  H174 3456   7.379   4.214   2.639 -0.5919 -1.2684 -0.2517
    9CHTO  H175 3457   7.239   4.130   2.700 -1.5301  0.4120  1.2789
    9CHTO   C97 3458   7.172   4.293   2.900 -0.3695  0.1574  0.0487
    9CHTO  H184 3459   7.113   4.200   2.889 -0.3513  0.1355  0.1357
    9CHTO   O64 3460   7.188   4.333   3.044  0.2193 -0.3366  0.4577
    9CHTO  C104 3461   7.254   4.225   3.111 -0.9137 -0.0166 -0.6735
    9CHTO  H191 3462   7.211   4.126   3.102  0.5465 -0.8113  0.8268
    9CHTO  C108 3463   7.252   4.258   3.262  0.8147 -0.3099  0.3772
    9CHTO   O71 3464   7.315   4.377   3.306 -0.5282  0.7343  0.5637
    9CHTO  H171 3465   7.273   4.454   3.272 -0.2511  0.4195 -0.5006
    9CHTO   O62 3466   7.097   4.402   2.842 -0.2631  0.0625 -0.6396
    9CHTO   C91 3467   6.981   4.363   2.764 -0.4020 -0.1459  0.9564
    9CHTO  H178 3468   7.012   4.294   2.687 -0.3981 -0.8489  1.5878
    9CHTO   C92 3469   6.922   4.486   2.681 -0.3520 -0.0986 -0.2257
    9CHTO  H179 3470   7.007   4.536   2.631  0.6193 -0.4680  1.0253
    9CHTO   O66 3471   6.836   4.433   2.578  0.1424 -0.1508 -0.0365
    9CHTO  H166 3472   6.772   4.375   2.614  0.5317  0.1121  1.0934
    9CHTO   C93 3473   6.827   4.581   2.772  0.1879  0.1352 -0.3358
    9CHTO  H180 3474   6.777   4.654   2.707  0.4694 -0.7232 -1.5488
    9CHTO   N16 3475   6.906   4.677   2.856 -0.3254 -0.2948  0.1522
    9CHTO  H172 3476   6.984   4.719   2.795 -0.2370 -0.7490 -0.0444
    9CHTO  H173 3477   6.846   4.760   2.891  1.8361  1.2375  0.3453
    9CHTO   C94 3478   6.724   4.496   2.854 -0.0727 -0.6088  0.4362
    9CHTO  H181 3479   6.738   4.503   2.962 -0.4503  3.6107  0.2846
    9CHTO   O61 3480   6.739   4.356   2.824 -0.2356  0.6268 -0.2232
    9CHTO   C95 3481   6.863   4.292   2.842 -0.0705  0.5039 -0.5402
    9CHTO  H182 3482   6.891   4.295   2.948  0.9936  2.2044 -0.8621
    9CHTO  C106 3483   6.865   4.137   2.804  0.5599 -0.3158 -0.1374
    9CHTO   O69 3484   6.731   4.083   2.804 -0.2070  0.2128  0.2712
    9CHTO  H169 3485   6.728   3.989   2.811 -2.8314  0.0486 -1.9975
    9CHTO   O63 3486   6.596   4.541   2.826  0.5571 -0.8134  0.0318
    9CHTO   C96 3487   6.478   4.513   2.940  0.6951 -0.0313 -1.3209
    9CHTO  H183 3488   6.520   4.534   3.038  0.9141 -1.3545 -1.1174
    9CHTO   C98 3489   6.433   4.364   2.944 -0.4009  0.4934  0.8413
    9CHTO  H185 3490   6.400   4.325   2.847  2.4677  1.8703 -0.7315
    9CHTO   O67 3491   6.551   4.288   2.981  0.2121 -0.4351 -0.3643
    9CHTO  H167 3492   6.564   4.222   2.915 -3.2431 -1.2516 -0.3346
    9CHTO  C102 3493   6.312   4.345   3.050  0.2504  0.5297  0.6440
    9CHTO  H189 3494   6.356   4.365   3.149  2.6191  0.8305 -0.4423
    9CHTO   N18 3495   6.254   4.209   3.056  0.2017 -0.0608 -0.1969
    9CHTO  H176 3496   6.230   4.185   3.159 -2.4303  0.3458 -0.6899
    9CHTO  H177 3497   6.168   4.201   2.991 -1.1154 -0.1634  1.5007
    9CHTO  C105 3498   6.201   4.453   3.028 -0.3473  0.5084  0.0051
    9CHTO  H192 3499   6.151   4.430   2.933 -0.2664  0.1299  0.0531
    9CHTO   O65 3500   6.269   4.574   3.029  0.3311  0.0215  0.3678
    9CHTO  C100 3501   6.354   4.602   2.919 -0.4653  0.2936 -0.1321
    9CHTO  H187 3502   6.304   4.564   2.829 -1.0933  1.1124 -0.1231
    9CHTO  C107 3503   6.373   4.756   2.910  0.7109  0.4152  0.0643
    9CHTO   O70 3504   6.262   4.830   2.881  0.9188 -0.3218  0.0569
    9CHTO  H170 3505   6.279   4.881   2.804  1.6316 -0.9657 -0.2197
    9CHTO   O57 3506   6.092   4.462   3.156 -0.8116  0.1349 -0.2658
    9CHTO   C85 3507   5.965   4.532   3.149  0.9263 -0.2254 -0.3038
    9CHTO  H157 3508   5.893   4.473   3.090 -0.8650  1.2589  0.3354
    9CHTO   C83 3509   5.971   4.675   3.082 -0.1529  0.1501 -0.3043
    9CHTO  H155 3510   6.007   4.658   2.980  4.0881  0.3368  1.0867
    9CHTO   O56 3511   6.081   4.744   3.150  0.2434  0.6780  0.2489
    9CHTO  H135 3512   6.047   4.761   3.235  0.9977 -1.7060  1.0595
    9CHTO   C81 3513   5.830   4.743   3.082  0.1943  0.5805  0.1392
    9CHTO  H153 3514   5.760   4.675   3.033  2.4859 -0.8772 -1.2135
    9CHTO   N14 3515   5.827   4.868   3.006 -0.4353  0.1968  0.1514
    9CHTO  H141 3516   5.852   4.848   2.904  0.8858 -0.8930  0.6731
    9CHTO  H142 3517   5.730   4.912   3.009 -0.9505 -0.4182 -4.0384
    9CHTO   C79 3518   5.780   4.757   3.235 -0.0875 -0.0967 -0.3561
    9CHTO  H151 3519   5.674   4.780   3.230 -0.5705 -1.5124  2.4484
    9CHTO   O52 3520   5.785   4.626   3.299  0.1803 -0.0302 -0.1390
    9CHTO   C86 3521   5.906   4.555   3.292 -0.0328 -0.4109 -0.1220
    9CHTO  H158 3522   5.976   4.610   3.358  1.2576 -1.4732 -0.5851
    9CHTO   C90 3523   5.876   4.418   3.358 -1.0354  0.6537 -0.7430
    9CHTO   O60 3524   5.869   4.412   3.502  0.3803 -0.0872 -0.0938
    9CHTO  H138 3525   5.933   4.465   3.545  1.2610 -0.0097 -1.4792
    9CHTO   O50 3526   5.849   4.853   3.319 -0.1348  0.4261 -0.2897
    9CHTO   C73 3527   5.869   4.943   3.428 -0.0603  0.6175  0.4533
    9CHTO  H145 3528   5.785   4.943   3.499 -1.0544 -0.6056 -0.6907
    9CHTO   C74 3529   5.885   5.095   3.372 -0.1760 -0.3009 -0.0082
    9CHTO  H146 3530   5.793   5.127   3.320  0.7433  0.7947 -0.9870
    9CHTO   O54 3531   5.894   5.189   3.482 -0.4528 -0.3118 -0.5327
    9CHTO  H133 3532   5.832   5.166   3.548  0.2070  0.7156  0.4617
    9CHTO   C75 3533   6.015   5.089   3.269  1.3032 -0.2774 -0.0405
    9CHTO  H147 3534   5.992   5.022   3.186  0.6311  0.1922 -0.2390
    9CHTO   N13 3535   6.041   5.223   3.209  0.0879  0.3475  0.2980
    9CHTO  H139 3536   5.948   5.266   3.175 -0.5185 -2.8272 -2.3862
    9CHTO  H140 3537   6.095   5.291   3.273  0.8129 -1.2149  1.3911
    9CHTO   C76 3538   6.140   5.032   3.346  0.4066 -0.5485 -0.0969
    9CHTO  H148 3539   6.183   5.109   3.410  1.7257  0.2996 -1.9501
    9CHTO   O49 3540   6.105   4.904   3.400  0.3971 -0.3894  0.0784
    9CHTO   C77 3541   6.000   4.906   3.499 -0.6650 -0.0574 -0.4166
    9CHTO  H149 3542   6.025   4.988   3.566  0.1965 -1.9549  1.6154
    9CHTO   C88 3543   5.995   4.775   3.565  0.2202  0.6001 -0.2598
    9CHTO   O58 3544   5.885   4.750   3.661  0.6294  0.2420  0.4497
    9CHTO  H136 3545   5.807   4.784   3.622  0.7101 -1.1765 -0.9765
    9CHTO   O51 3546   6.255   4.995   3.238 -0.0870  0.2492  0.1836
    9CHTO   C78 3547   6.410   5.017   3.289 -0.5184 -0.1259  0.2401
    9CHTO  H150 3548   6.414   5.030   3.399 -1.6578  0.5599  0.2112
    9CHTO   C80 3549   6.468   5.141   3.223 -0.0380  0.2304  0.3119
    9CHTO  H152 3550   6.450   5.136   3.114 -1.7836 -3.9069  0.7083
    9CHTO   O55 3551   6.387   5.246   3.274 -0.1727  0.2486 -0.0470
    9CHTO  H134 3552   6.298   5.235   3.244  0.3153  2.9260 -2.7294
    9CHTO   C84 3553   6.618   5.161   3.266  1.0282  0.0847 -0.5405
    9CHTO  H156 3554   6.629   5.166   3.375  1.3934  4.1451 -0.7111
    9CHTO   N15 3555   6.679   5.282   3.212 -0.4846  0.6178 -0.0711
    9CHTO  H143 3556   6.655   5.300   3.109  0.2053  1.3493 -0.1041
    9CHTO  H144 3557   6.649   5.367   3.270 -2.4599 -0.9733  1.2972
    9CHTO   C87 3558   6.695   5.036   3.227  0.0926 -0.0375 -0.2831
    9CHTO  H159 3559   6.687   5.011   3.122  1.2207 -0.0951 -0.3704
    9CHTO   O53 3560   6.632   4.920   3.300  0.5753  0.1777 -0.4072
    9CHTO   C82 3561   6.493   4.897   3.252 -0.1790 -0.2836 -0.3380
    9CHTO  H154 3562   6.506   4.876   3.146  0.1572  0.2622 -0.4052
    9CHTO   C89 3563   6.436   4.765   3.318  0.4044  0.8467  0.3448
    9CHTO   O59 3564   6.521   4.652   3.287 -0.3398 -0.5078 -0.0519
    9CHTO  H137 3565   6.581   4.644   3.358  0.3354  3.0268 -0.1457
    9CHTO   O45 3566   6.860   5.049   3.272  0.5944 -0.0449  1.0858
    9CHTO   C67 3567   6.909   4.931   3.344 -0.1025 -0.9133 -0.0877
    9CHTO  H124 3568   6.829   4.880   3.398  0.2135  0.3311  1.5960
    9CHTO   C65 3569   6.965   4.828   3.237  0.2628  0.6096 -0.0352
    9CHTO  H122 3570   7.006   4.875   3.148  0.0396  2.8303  1.0029
    9CHTO   O44 3571   6.853   4.748   3.204  0.6477  0.1352 -0.1024
    9CHTO  H102 3572   6.812   4.707   3.278 -0.9772 -1.6191 -1.8800
    9CHTO   C63 3573   7.094   4.749   3.300  0.5203 -0.1066  0.2435
    9CHTO  H120 3574   7.176   4.821   3.304  2.0696 -1.8286 -0.2195
    9CHTO   N11 3575   7.149   4.638   3.223 -0.3376 -0.3687  0.4844
    9CHTO  H108 3576   7.139   4.656   3.118  1.0945  1.6903  0.6576
    9CHTO  H109 3577   7.097   4.551   3.256 -0.1635 -1.8410 -2.9044
    9CHTO   C61 3578   7.066   4.729   3.450 -0.0801 -0.3481  0.2396
    9CHTO  H118 3579   7.153   4.674   3.488  0.7892  1.8766  1.5873
    9CHTO   O40 3580   7.059   4.848   3.519  0.2708 -0.5608  0.1277
    9CHTO   C68 3581   7.017   4.971   3.451 -0.2488  0.1471 -0.8783
    9CHTO  H125 3582   7.114   5.011   3.414  1.5836 -0.7864  2.6415
    9CHTO   C72 3583   6.963   5.082   3.551  0.4067  0.0157 -0.4652
    9CHTO   O48 3584   6.832   5.052   3.609  0.1847 -0.4016 -0.6622
    9CHTO  H105 3585   6.824   5.051   3.703 -2.2507  0.7408 -0.8007
    9CHTO   O38 3586   6.947   4.648   3.467  0.0849 -0.3085 -0.3540
    9CHTO   C55 3587   6.922   4.611   3.604 -0.3607  0.1969  0.6451
    9CHTO  H112 3588   6.965   4.690   3.669  1.0659 -0.2717  0.2909
    9CHTO   C56 3589   6.994   4.467   3.633  0.1489 -0.3643 -0.4162
    9CHTO  H113 3590   6.951   4.406   3.552 -2.9703  0.7212  0.3495
    9CHTO   O42 3591   7.135   4.480   3.627 -0.5246  0.4513  0.7265
    9CHTO  H100 3592   7.170   4.399   3.659 -2.5865 -1.2771 -1.2425
    9CHTO   C57 3593   6.952   4.408   3.774 -0.1944 -0.5193  0.1905
    9CHTO  H114 3594   6.994   4.475   3.849  2.2542  1.5970 -2.9804
    9CHTO   N10 3595   6.998   4.271   3.803  0.9376  0.5039 -0.3379
    9CHTO  H106 3596   7.033   4.248   3.903 -0.3968  0.3769  0.0999
    9CHTO  H107 3597   6.927   4.193   3.780  0.9247  0.1162  0.9904
    9CHTO   C58 3598   6.793   4.427   3.789  0.4215  0.2554  0.5187
    9CHTO  H115 3599   6.740   4.369   3.710  2.5698 -0.0290 -0.7598
    9CHTO   O37 3600   6.759   4.566   3.771 -0.1221  0.0948  1.0167
    9CHTO   C59 3601   6.775   4.610   3.632  0.5940  0.3263 -0.7053
    9CHTO  H116 3602   6.727   4.541   3.563 -1.6106  1.3461 -0.2479
    9CHTO   C70 3603   6.696   4.738   3.609  0.1655  0.7601 -0.4200
    9CHTO   O46 3604   6.557   4.715   3.618  0.1161 -0.5870  0.2206
    9CHTO  H103 3605   6.522   4.678   3.696 -1.1356  0.1394  0.0176
    9CHTO   O39 3606   6.742   4.376   3.936 -0.0423 -0.7013 -1.0606
    9CHTO   C60 3607   6.601   4.377   3.962  0.1550  0.0583 -1.4842
    9CHTO  H117 3608   6.559   4.465   3.914  2.8676  1.7503 -0.8443
    9CHTO   C62 3609   6.520   4.248   3.916  0.0004  0.4304 -0.5225
    9CHTO  H119 3610   6.515   4.255   3.806  0.9158  0.2635 -0.5773
    9CHTO   O43 3611   6.568   4.126   3.964 -0.0537  0.1678 -0.2972
    9CHTO  H101 3612   6.658   4.117   3.941  0.0513 -0.2485  0.2906
    9CHTO   C66 3613   6.365   4.264   3.957 -0.3110 -0.1506 -0.6446
    9CHTO  H123 3614   6.320   4.355   3.917  0.1187  1.6365  2.7410
    9CHTO   N12 3615   6.275   4.161   3.898  0.0947  0.0328 -0.3069
    9CHTO  H110 3616   6.174   4.199   3.898  0.8209  2.0659  1.0715
    9CHTO  H111 3617   6.307   4.143   3.796 -1.3990 -1.5542 -0.5270
    9CHTO   C69 3618   6.359   4.267   4.110 -0.1481  0.3749 -0.1641
    9CHTO  H126 3619   6.393   4.166   4.141 -1.7969 -0.2933 -0.4877
    9CHTO   O41 3620   6.442   4.386   4.172 -0.1210 -0.0533  0.2621
    9CHTO   C64 3621   6.589   4.391   4.120  0.2261  0.3731  0.0057
    9CHTO  H121 3622   6.640   4.310   4.177  0.6481  0.3272 -0.4401
    9CHTO   C71 3623   6.642   4.520   4.170  0.0116  0.3250  0.1772
    9CHTO   O47 3624   6.667   4.511   4.306 -0.5852  0.2767 -0.1199
    9CHTO  H104 3625   6.755   4.527   4.336 -0.7128  0.3536  0.2152
    9CHTO   O34 3626   6.220   4.266   4.172 -0.5869  0.2292  0.0990
    9CHTO   C49 3627   6.119   4.226   4.276  0.3610  0.1665  0.1419
    9CHTO   H91 3628   6.020   4.236   4.232  0.8864 -2.9401 -1.9325
    9CHTO   C47 3629   6.153   4.322   4.396 -0.7186  0.3300  0.0419
    9CHTO   H89 3630   6.067   4.313   4.466 -0.4432  4.2649  1.0181
    9CHTO   O33 3631   6.150   4.460   4.358 -0.1286  0.3964 -0.7197
    9CHTO   H70 3632   6.217   4.480   4.295 -0.0966  1.1532 -0.4454
    9CHTO   C45 3633   6.294   4.288   4.474 -0.3295 -0.2084  0.1189
    9CHTO   H87 3634   6.379   4.337   4.424  2.9923 -4.3655  1.4127
    9CHTO    N8 3635   6.293   4.324   4.619  0.1815  0.0822  0.3928
    9CHTO   H75 3636   6.331   4.255   4.693 -1.6989  1.3083  2.5544
    9CHTO   H76 3637   6.191   4.350   4.642  0.8317  0.3454  3.2305
    9CHTO   C43 3638   6.340   4.132   4.440 -0.3508  0.0123  0.3264
    9CHTO   H85 3639   6.394   4.137   4.345  0.6303  2.8856  1.0136
    9CHTO   O29 3640   6.230   4.042   4.433  0.1372  0.4858 -0.3155
    9CHTO   C50 3641   6.139   4.077   4.324 -0.0215 -0.8387  0.1911
    9CHTO   H92 3642   6.177   4.023   4.236  0.0572 -0.5351  0.0362
    9CHTO   C54 3643   6.006   4.007   4.343  0.5389  0.8063  0.8081
    9CHTO   O36 3644   5.996   3.870   4.311  0.2406 -0.0559  0.5849
    9CHTO   H72 3645   5.906   3.847   4.325 -0.3952  0.8134 -1.7350
    9CHTO   O27 3646   6.446   4.080   4.532 -0.1950 -0.0334 -0.1245
    9CHTO   C37 3647   6.593   4.068   4.542  0.4658 -0.4891 -0.0348
    9CHTO   H79 3648   6.628   3.969   4.574 -2.6842 -1.7340 -0.2882
    9CHTO   C38 3649   6.667   4.084   4.411  0.9171 -0.2540  0.2225
    9CHTO   H80 3650   6.624   4.173   4.363 -0.2870  0.1689  2.0763
    9CHTO   O31 3651   6.645   3.972   4.323 -0.1565 -0.1143  0.3008
    9CHTO   H68 3652   6.680   3.897   4.366  0.6250  0.2398  0.2926
    9CHTO   C39 3653   6.819   4.123   4.432 -0.3385 -0.0601 -0.3083
    9CHTO   H81 3654   6.852   4.035   4.487  0.2700  1.8305  2.4789
    9CHTO    N7 3655   6.897   4.158   4.311 -0.1544 -0.1508 -0.5938
    9CHTO   H73 3656   6.874   4.094   4.228  1.8541 -0.4492 -0.9579
    9CHTO   H74 3657   7.001   4.149   4.341 -0.6243 -0.8302  0.8907
    9CHTO   C40 3658   6.833   4.240   4.540  0.7852  0.3368  0.2647
    9CHTO   H82 3659   6.773   4.323   4.504 -1.6129 -1.5146 -0.1587
    9CHTO   O26 3660   6.779   4.181   4.656  0.3280 -0.1922  0.4878
    9CHTO   C41 3661   6.632   4.165   4.653 -0.3412  0.5394  0.3449
    9CHTO   H83 3662   6.577   4.255   4.622 -1.1090 -0.0701 -0.0567
    9CHTO   C52 3663   6.564   4.115   4.792 -0.1704  0.1327 -0.2914
    9CHTO   O35 3664   6.605   4.193   4.906  0.2219  0.1324 -0.5562
    9CHTO   H71 3665   6.584   4.283   4.890 -0.9908  0.2885  1.5942
    9CHTO   O28 3666   6.958   4.297   4.575  0.2868  0.6080  1.1083
    9CHTO   C42 3667   6.979   4.423   4.644 -0.5653  0.8447  0.5532
    9CHTO   H84 3668   7.079   4.413   4.686 -0.6655  0.3087  0.6746
    9CHTO   C44 3669   6.885   4.445   4.773 -0.0603  0.2740 -0.3455
    9CHTO   H86 3670   6.787   4.406   4.747 -0.5150  0.5397  0.9653
    9CHTO   O32 3671   6.936   4.370   4.880 -1.2175 -0.5685  0.7704
    9CHTO   H69 3672   6.903   4.282   4.886  0.3764 -1.2419  0.0658
    9CHTO   C48 3673   6.860   4.593   4.797  0.5662 -0.0018  0.1313
    9CHTO   H90 3674   6.947   4.623   4.856 -0.8350  1.4405  1.5039
    9CHTO    N9 3675   6.754   4.614   4.902  0.6132 -0.1626  0.3832
    9CHTO   H77 3676   6.740   4.721   4.905 -1.1206 -0.3117 -1.6481
    9CHTO   H78 3677   6.662   4.564   4.876 -0.4646  1.0970  1.6804
    9CHTO   C51 3678   6.828   4.663   4.667 -0.9793 -0.2648 -0.4261
    9CHTO   H93 3679   6.745   4.614   4.617 -0.4633 -0.5066 -1.0469
    9CHTO   O30 3680   6.953   4.655   4.594  0.0708  0.2453  0.1518
    9CHTO   C46 3681   6.979   4.534   4.536  0.7261 -0.4933  0.4217
    9CHTO   H88 3682   6.908   4.502   4.461  1.8785  0.8897 -1.2849
    9CHTO   C53 3683   7.117   4.533   4.466  1.0258  0.0911  0.1888
    9CHTO   O72 3684   7.126   4.410   4.390  0.2387  0.5157 -0.3549
    9CHTO  H199 3685   7.178   4.338   4.418 -0.0272  0.1660 -0.7538
    9CHTO   O22 3686   6.797   4.805   4.676 -0.5050  0.1550 -0.3060
    9CHTO   C31 3687   6.719   4.881   4.573 -0.1988 -0.1291 -0.2105
    9CHTO   H59 3688   6.703   4.980   4.619  1.5974 -0.2322  0.6549
    9CHTO   C29 3689   6.784   4.905   4.435  0.5125  0.5461 -0.1003
    9CHTO   H57 3690   6.815   4.804   4.406 -0.7359  0.5060 -1.3393
    9CHTO   O21 3691   6.903   4.991   4.459  0.1469 -0.4512  0.2761
    9CHTO   H37 3692   6.934   5.044   4.389  0.6330 -0.8955  0.1580
    9CHTO   C27 3693   6.688   4.966   4.330 -0.1045 -0.3829  0.8283
    9CHTO   H55 3694   6.662   5.068   4.362 -0.2455 -0.0129 -0.4620
    9CHTO    N5 3695   6.754   4.971   4.192  0.6825  0.5177  0.4751
    9CHTO   H43 3696   6.832   5.042   4.213  2.5798 -1.3092 -0.1589
    9CHTO   H44 3697   6.800   4.874   4.176 -0.6154 -0.2505  1.3578
    9CHTO   C25 3698   6.553   4.887   4.330 -0.0331  1.2995 -0.1581
    9CHTO   H53 3699   6.573   4.788   4.288  0.7334  2.0587 -1.6030
    9CHTO   O17 3700   6.498   4.905   4.462 -0.3629  0.2566 -0.5444
    9CHTO   C32 3701   6.575   4.825   4.556  0.4059 -0.4810  0.0870
    9CHTO   H60 3702   6.589   4.720   4.530 -0.3060 -0.8229  1.0433
    9CHTO   C36 3703   6.484   4.819   4.685 -0.2221  1.0619  0.6531
    9CHTO   O25 3704   6.382   4.720   4.652  0.1350  0.5797 -0.0328
    9CHTO   H40 3705   6.300   4.765   4.653  0.3094  0.9024 -0.2147
    9CHTO   O15 3706   6.453   4.944   4.240 -0.0467  0.2917  0.1728
    9CHTO   C19 3707   6.344   4.874   4.169  0.3999 -0.1500 -0.6872
    9CHTO   H47 3708   6.287   4.961   4.136  1.6023  1.9066  2.4587
    9CHTO   C20 3709   6.383   4.781   4.051  0.4177 -0.5706  0.4205
    9CHTO   H48 3710   6.444   4.695   4.082  1.2350 -0.2219 -0.2163
    9CHTO   O19 3711   6.471   4.863   3.969 -0.5429  0.9196 -0.4029
    9CHTO   H35 3712   6.561   4.866   3.997 -0.3323 -2.6289 -0.4793
    9CHTO   C21 3713   6.255   4.724   3.977 -0.4097  0.1570 -0.6380
    9CHTO   H49 3714   6.196   4.811   3.948 -0.9084  0.6672  1.8100
    9CHTO    N4 3715   6.284   4.635   3.862 -0.2165 -0.2655 -0.3578
    9CHTO   H41 3716   6.193   4.603   3.814  0.9324 -0.2597 -2.6010
    9CHTO   H42 3717   6.345   4.550   3.889 -0.4572  0.3241  2.1982
    9CHTO   C22 3718   6.162   4.655   4.083 -0.0285 -0.1025 -0.0311
    9CHTO   H50 3719   6.205   4.562   4.120 -0.4005 -0.1297  0.3236
    9CHTO   O14 3720   6.140   4.749   4.195  0.3870 -0.1077  0.1494
    9CHTO   C23 3721   6.252   4.791   4.273 -0.2025  0.0745 -0.6874
    9CHTO   H51 3722   6.301   4.701   4.312  1.8558  1.1968 -0.6116
    9CHTO   C34 3723   6.194   4.873   4.394 -0.0747  0.2904  0.0390
    9CHTO   O23 3724   6.100   4.797   4.471 -0.9273  0.0406 -0.2264
    9CHTO   H38 3725   6.151   4.736   4.520 -1.0492  0.7615  0.8221
    9CHTO   O16 3726   6.030   4.641   4.020 -0.0635  0.0948 -0.2486
    9CHTO   C24 3727   5.954   4.478   4.020  0.2046 -0.2296 -0.1576
    9CHTO   H52 3728   6.021   4.404   4.063  1.5427  1.8333  1.3966
    9CHTO   C26 3729   5.912   4.430   3.880  0.4895 -0.4586  0.3789
    9CHTO   H54 3730   5.837   4.503   3.842  0.4480  0.0630  1.4623
    9CHTO   O20 3731   6.037   4.434   3.803 -0.4833 -0.1568 -0.6563
    9CHTO   H36 3732   6.032   4.394   3.718 -2.5918  1.5886 -1.4040
    9CHTO   C30 3733   5.857   4.284   3.896  0.2407  0.5011 -0.4589
    9CHTO   H58 3734   5.940   4.225   3.938 -1.4145  1.0083  3.8204
    9CHTO    N6 3735   5.811   4.231   3.769  0.7098  0.5140  0.6348
    9CHTO   H45 3736   5.854   4.134   3.747 -0.0956  0.3740 -0.3875
    9CHTO   H46 3737   5.703   4.230   3.762  0.7446  0.3267  0.1148
    9CHTO   C33 3738   5.740   4.285   3.998  0.0393 -0.6133 -0.2078
    9CHTO   H61 3739   5.653   4.342   3.961  0.6658  1.7199  1.7866
    9CHTO   O18 3740   5.780   4.351   4.120 -0.1515  0.3991 -0.4723
    9CHTO   C28 3741   5.830   4.479   4.112  0.6975 -0.3664  0.4190
    9CHTO   H56 3742   5.756   4.544   4.066  2.3490 -0.1587 -2.0288
    9CHTO   C35 3743   5.864   4.528   4.255 -0.0065 -0.4455  0.1231
    9CHTO   O24 3744   5.759   4.616   4.306 -0.0310  0.4160  0.0368
    9CHTO   H39 3745   5.693   4.563   4.346  1.5279 -1.5423  0.0728
    9CHTO    O9 3746   5.698   4.149   4.027 -0.2085 -0.1253  0.4656
    9CHTO   C13 3747   5.530   4.108   3.997 -0.5147  0.9631  0.5092
    9CHTO   H26 3748   5.515   4.101   3.888  1.3798 -1.0641  0.3403
    9CHTO   C11 3749   5.433   4.210   4.062  0.6231  0.4050 -0.4242
    9CHTO   H24 3750   5.440   4.303   4.003  1.8621  1.4784  1.3879
    9CHTO    O8 3751   5.453   4.227   4.202  0.5674  0.4025 -0.1752
    9CHTO    H3 3752   5.381   4.269   4.246  0.0888  0.9921 -1.5097
    9CHTO    C9 3753   5.291   4.156   4.023 -0.1559  0.0811 -0.5900
    9CHTO   H22 3754   5.292   4.137   3.915  0.3127  2.3529 -1.0253
    9CHTO    N2 3755   5.176   4.244   4.057 -0.1275  0.1042  0.0984
    9CHTO   H10 3756   5.202   4.341   4.017 -0.4727 -0.3177 -1.1918
    9CHTO   H11 3757   5.174   4.237   4.164  1.7215 -0.5636  0.0993
    9CHTO    C7 3758   5.275   4.013   4.092  0.3402 -0.1001  0.4620
    9CHTO   H20 3759   5.176   3.971   4.065 -0.8463 -0.1379  4.4882
    9CHTO    O4 3760   5.374   3.919   4.058  0.1142 -0.6986 -0.5658
    9CHTO   C14 3761   5.511   3.964   4.049 -0.1285  0.1727  0.3521
    9CHTO   H27 3762   5.558   3.899   3.973  0.0710  2.0852 -1.2161
    9CHTO   C18 3763   5.580   3.933   4.183 -0.2828  0.3110 -0.6256
    9CHTO   O13 3764   5.597   3.791   4.185  0.8973 -0.0635  0.1962
    9CHTO    H7 3765   5.665   3.778   4.248 -1.0376  0.8320  2.5684
    9CHTO    O2 3766   5.279   4.032   4.272  0.0437  0.0703  0.3588
    9CHTO    C1 3767   5.207   3.946   4.365 -0.2517 -0.7134 -0.1845
    9CHTO   H14 3768   5.207   3.844   4.322 -1.6255 -0.0557 -1.8178
    9CHTO    C2 3769   5.054   3.991   4.391  0.2917  0.1118 -0.4917
    9CHTO   H15 3770   5.056   4.100   4.402 -2.9167 -0.1246  3.6109
    9CHTO    O6 3771   4.971   3.960   4.274 -0.0887  0.6198 -0.1117
    9CHTO    H1 3772   4.887   3.998   4.291 -0.0413  0.0116  1.5548
    9CHTO    C3 3773   4.983   3.919   4.513  0.5150 -0.8297  0.7902
    9CHTO   H16 3774   4.949   3.817   4.491 -0.1105 -0.1637 -1.3722
    9CHTO    N1 3775   4.852   3.980   4.562  0.6145 -0.4752  0.2766
    9CHTO    H8 3776   4.798   4.032   4.484  1.0581 -0.0412  0.2517
    9CHTO    H9 3777   4.782   3.908   4.600  0.5026 -1.3322 -1.4987
    9CHTO    C4 3778   5.075   3.906   4.635  0.3919  0.4472 -0.1454
    9CHTO   H17 3779   5.090   3.998   4.690  1.3067 -0.4969  1.2241
    9CHTO    O1 3780   5.204   3.860   4.590  0.1676  0.1921  0.2794
    9CHTO    C5 3781   5.284   3.944   4.505 -0.1349 -0.2019 -0.6804
    9CHTO   H18 3782   5.284   4.046   4.545 -2.6287 -0.1766 -0.6615
    9CHTO   C16 3783   5.429   3.898   4.496  0.3165  0.1565 -0.0858
    9CHTO   O11 3784   5.437   3.760   4.461  0.8360 -0.6897 -0.1548
    9CHTO    H5 3785   5.457   3.743   4.371  1.2641 -0.0743 -0.1748
    9CHTO    O3 3786   5.026   3.805   4.735 -0.3339 -0.0566 -0.2252
    9CHTO    C6 3787   5.118   3.765   4.844  0.0979 -0.5826  0.4086
    9CHTO   H19 3788   5.221   3.799   4.835  0.9665 -3.4047 -1.0225
    9CHTO    C8 3789   5.063   3.827   4.978 -0.4591 -0.7219  0.3413
    9CHTO   H21 3790   4.962   3.789   4.995 -1.8890  2.6189 -0.1894
    9CHTO    O7 3791   5.061   3.972   4.958 -0.0694 -0.8038  0.4497
    9CHTO    H2 3792   5.143   4.010   4.980  0.2954 -0.8942 -0.6995
    9CHTO   C12 3793   5.144   3.784   5.105  0.2041  0.6429 -0.1222
    9CHTO   H25 3794   5.245   3.825   5.083  1.2369 -1.5022  0.5184
    9CHTO    N3 3795   5.102   3.847   5.233 -0.2635  0.5558  0.1340
    9CHTO   H12 3796   5.189   3.895   5.274  0.6694 -1.7419  0.9283
    9CHTO   H13 3797   5.074   3.779   5.313 -1.4617  1.8186  0.8153
    9CHTO   C15 3798   5.146   3.626   5.103 -0.2857  0.5067  0.6505
    9CHTO   H28 3799   5.045   3.588   5.119 -0.5606  0.8598 -0.2314
    9CHTO   O10 3800   5.262   3.578   5.210  0.1002  0.2797 -0.6731
    9CHTO    H4 3801   5.253   3.487   5.227 -0.3234  0.3543 -0.5015
    9CHTO    O5 3802   5.205   3.586   4.974 -0.0604  0.2170 -0.4902
    9CHTO   C10 3803   5.120   3.607   4.861 -0.1549 -1.0654  0.2669
    9CHTO   H23 3804   5.021   3.567   4.879 -1.2147  2.0273  1.7381
    9CHTO   C17 3805   5.179   3.536   4.734 -0.3897  0.5514 -0.0036
    9CHTO   O12 3806   5.189   3.394   4.756  0.6753  0.1380  0.1801
    9CHTO    H6 3807   5.109   3.345   4.748 -0.1283  1.6053 -0.8809
   10CHTO  H203 3808   5.313   6.673  -1.602 -0.0826  0.3997  0.2442
   10CHTO   O82 3809   5.303   6.599  -1.545 -0.0223 -0.4600 -0.8406
   10CHTO  C123 3810   5.180   6.527  -1.528  0.2912  0.0089  0.0940
   10CHTO  H227 3811   5.140   6.511  -1.630  0.6810  0.7581 -0.1843
   10CHTO   O77 3812   5.225   6.405  -1.472 -0.3574  0.4920  0.3180
   10CHTO  C118 3813   5.137   6.290  -1.458  0.3787  0.2905  0.1487
   10CHTO  H222 3814   5.105   6.262  -1.559  0.5856  0.4546  0.0376
   10CHTO  C125 3815   5.222   6.171  -1.391  0.0017  0.1709  0.0779
   10CHTO   O84 3816   5.261   6.207  -1.254  0.3613  0.0372  1.0640
   10CHTO  H205 3817   5.343   6.252  -1.251  0.5961 -0.4446  1.9405
   10CHTO  C114 3818   5.020   6.332  -1.371 -0.3042  0.3165 -0.2283
   10CHTO  H218 3819   5.059   6.345  -1.270  2.7775 -1.6385 -1.0871
   10CHTO  C116 3820   4.957   6.463  -1.413 -0.0715 -0.2283  0.8492
   10CHTO  H220 3821   4.897   6.455  -1.506 -0.2562  3.1527  0.6196
   10CHTO   O79 3822   4.859   6.497  -1.310  0.1848  0.2127  0.3370
   10CHTO  H201 3823   4.857   6.590  -1.293 -1.1308 -0.2626  3.0135
   10CHTO  C120 3824   5.062   6.585  -1.436  0.7655  0.2033 -1.0783
   10CHTO  H224 3825   5.110   6.618  -1.341  0.4038 -0.9867 -0.4829
   10CHTO   N21 3826   5.007   6.704  -1.498  0.1325 -0.1971  0.1341
   10CHTO  H211 3827   5.028   6.711  -1.604 -0.1237  0.0674  0.0999
   10CHTO  H212 3828   4.900   6.716  -1.488  0.0830  1.5418 -1.9758
   10CHTO   O75 3829   4.940   6.215  -1.375  0.0144 -0.3722 -0.6011
   10CHTO  C112 3830   4.901   6.143  -1.211  0.3938 -0.3388 -0.4219
   10CHTO  H216 3831   4.925   6.224  -1.140  1.2897 -1.4886  0.6093
   10CHTO   O73 3832   4.990   6.027  -1.197  0.6095 -0.0282 -0.3163
   10CHTO  C113 3833   4.972   5.975  -1.066 -0.0310 -1.1827 -0.3488
   10CHTO  H217 3834   5.001   6.053  -0.991  1.9795 -1.5407 -0.7166
   10CHTO  C124 3835   5.077   5.865  -1.052  0.2895  0.0964  0.4257
   10CHTO   O83 3836   5.214   5.923  -1.047  0.1628 -0.3248 -0.1243
   10CHTO  H204 3837   5.276   5.861  -1.079 -0.8576 -0.9855 -0.8760
   10CHTO  C109 3838   4.831   5.919  -1.048  0.2105 -0.1030 -0.1044
   10CHTO  H213 3839   4.827   5.840  -1.124 -0.2512 -0.2348  0.0580
   10CHTO  C110 3840   4.720   6.022  -1.076  0.1876 -0.9135  0.2631
   10CHTO  H214 3841   4.727   6.090  -0.990  2.3584 -3.5686  2.2705
   10CHTO   O78 3842   4.591   5.968  -1.069  0.0156  0.2006  0.1511
   10CHTO  H200 3843   4.559   5.991  -0.984  2.5461 -0.2021  1.2667
   10CHTO  C111 3844   4.749   6.104  -1.206  0.2908 -0.7103 -0.5224
   10CHTO  H215 3845   4.716   6.043  -1.291 -1.0050 -1.2040  0.3267
   10CHTO   N19 3846   4.665   6.228  -1.210 -0.1158 -0.1329  0.0314
   10CHTO  H207 3847   4.558   6.213  -1.205 -0.1524  0.6188  1.4321
   10CHTO  H208 3848   4.683   6.283  -1.301 -1.4540  1.8331  0.9223
   10CHTO   O74 3849   4.827   5.861  -0.919 -0.4114 -0.1452 -0.0158
   10CHTO  C115 3850   4.717   5.742  -0.900  0.3454 -0.5659  0.1090
   10CHTO  H219 3851   4.615   5.779  -0.909  0.7092  0.3079 -0.5618
   10CHTO   O76 3852   4.732   5.625  -1.022 -0.3174  0.3648  0.2480
   10CHTO  C122 3853   4.642   5.524  -1.005 -0.1855  0.4742 -0.2539
   10CHTO  H226 3854   4.660   5.443  -1.076  2.8650  0.3449  0.5939
   10CHTO  C126 3855   4.496   5.570  -1.031 -0.4356 -1.0936 -0.3400
   10CHTO   O85 3856   4.401   5.465  -0.996 -0.1083 -0.5791 -0.3043
   10CHTO  H206 3857   4.409   5.394  -1.057 -1.6067  0.0578 -1.2777
   10CHTO  C121 3858   4.650   5.455  -0.857 -0.0737  0.7883 -0.3392
   10CHTO  H225 3859   4.566   5.383  -0.846  1.4684 -0.8625  1.0334
   10CHTO   O81 3860   4.782   5.389  -0.858  0.4697 -0.4331  0.1951
   10CHTO  H202 3861   4.854   5.448  -0.859 -0.2948  0.5186  0.6124
   10CHTO  C119 3862   4.630   5.561  -0.738  0.1065  0.9826  0.6936
   10CHTO  H223 3863   4.530   5.603  -0.752  0.2888  1.6776  1.4231
   10CHTO  C117 3864   4.728   5.679  -0.752 -0.1594  0.2750  0.8062
   10CHTO  H221 3865   4.834   5.653  -0.741 -1.2690 -4.2140  1.9045
   10CHTO   N20 3866   4.692   5.774  -0.641 -0.4691 -0.0773  0.2167
   10CHTO  H209 3867   4.665   5.868  -0.686  3.4833 -0.0764 -2.2985
   10CHTO  H210 3868   4.606   5.755  -0.578 -1.2862 -0.8928 -1.1340
   10CHTO   O80 3869   4.611   5.503  -0.609 -0.0589  0.0857  0.2123
   10CHTO  C103 3870   4.493   5.414  -0.589 -0.3144 -0.2958 -0.1958
   10CHTO  H190 3871   4.438   5.401  -0.682  1.4315 -2.1934 -1.0167
   10CHTO  C101 3872   4.539   5.269  -0.535 -0.0547  0.4658  0.1686
   10CHTO  H188 3873   4.605   5.270  -0.449  1.6743  0.7442 -1.1403
   10CHTO   O68 3874   4.623   5.204  -0.641 -0.5007  0.0734 -0.0177
   10CHTO  H168 3875   4.682   5.141  -0.605 -0.5638  1.1090  1.9428
   10CHTO   C99 3876   4.413   5.177  -0.506 -0.2806  0.0706 -0.1653
   10CHTO  H186 3877   4.351   5.170  -0.598 -0.2492 -1.3348 -0.0982
   10CHTO   N17 3878   4.433   5.041  -0.450 -0.0849 -0.5331 -0.0768
   10CHTO  H174 3879   4.505   4.986  -0.509  0.4357 -1.1497  1.1163
   10CHTO  H175 3880   4.454   5.026  -0.345 -0.4057 -2.0492 -0.2164
   10CHTO   C97 3881   4.326   5.255  -0.408 -0.0624  0.1683  0.5278
   10CHTO  H184 3882   4.386   5.269  -0.317  1.3372 -0.7443 -0.2335
   10CHTO   O64 3883   4.289   5.383  -0.471  0.0965 -0.3909 -0.6321
   10CHTO  C104 3884   4.396   5.479  -0.484  0.5498  0.0529  0.2658
   10CHTO  H191 3885   4.447   5.492  -0.388 -0.5025 -0.4848  0.9038
   10CHTO  C108 3886   4.344   5.614  -0.530 -0.0905 -0.3825  0.0984
   10CHTO   O71 3887   4.280   5.674  -0.421  0.5378  0.5530 -0.1282
   10CHTO  H171 3888   4.260   5.762  -0.449  1.1194  0.4305 -0.9523
   10CHTO   O62 3889   4.192   5.202  -0.393 -0.8241  0.5980  0.1785
   10CHTO   C91 3890   4.134   5.240  -0.263  0.4905 -0.5449 -0.5230
   10CHTO  H178 3891   4.180   5.333  -0.231  0.2906 -0.3360 -0.8327
   10CHTO   C92 3892   4.161   5.121  -0.156  0.2370 -0.2358 -0.1781
   10CHTO  H179 3893   4.111   5.025  -0.176 -1.1685  0.3887  0.2454
   10CHTO   O66 3894   4.302   5.100  -0.148 -0.0670 -0.1372  0.1068
   10CHTO  H166 3895   4.350   5.179  -0.133 -2.0770  1.0404  0.5299
   10CHTO   C93 3896   4.114   5.171  -0.011 -0.3358  0.1882 -0.3358
   10CHTO  H180 3897   4.168   5.262   0.018 -1.1649  0.6830 -0.3391
   10CHTO   N16 3898   4.151   5.078   0.099  0.3618  0.3196 -0.1634
   10CHTO  H172 3899   4.146   5.133   0.192 -1.0784  1.2772 -0.7951
   10CHTO  H173 3900   4.083   4.995   0.096  0.1010  0.5575 -0.8990
   10CHTO   C94 3901   3.961   5.208  -0.017  0.1766 -0.8974 -0.2754
   10CHTO  H181 3902   3.899   5.120  -0.032 -0.0139 -0.7099 -0.6005
   10CHTO   O61 3903   3.930   5.298  -0.126 -0.1226 -0.3950  0.8325
   10CHTO   C95 3904   3.976   5.254  -0.254 -0.5132 -0.5680  0.1875
   10CHTO  H182 3905   3.930   5.158  -0.277 -0.6357 -0.6844  0.8899
   10CHTO  C106 3906   3.918   5.366  -0.358  0.0919 -0.0688  0.2214
   10CHTO   O69 3907   3.983   5.498  -0.349  0.1784  0.1064  0.3159
   10CHTO  H169 3908   3.965   5.561  -0.416  0.4285 -0.5223 -0.3459
   10CHTO   O63 3909   3.900   5.288   0.123  0.1098  0.2308 -0.2092
   10CHTO   C96 3910   3.956   5.439   0.142  0.0504  0.6639  0.5083
   10CHTO  H183 3911   4.019   5.460   0.055 -0.7853 -0.4892 -0.3945
   10CHTO   C98 3912   4.045   5.460   0.268 -0.0711 -0.1172  0.3370
   10CHTO  H185 3913   3.990   5.427   0.357 -2.7003  0.0424 -1.1865
   10CHTO   O67 3914   4.161   5.375   0.265 -0.0760  0.2243  0.0751
   10CHTO  H167 3915   4.215   5.391   0.190  1.4524 -1.0183  0.8921
   10CHTO  C102 3916   4.091   5.615   0.291 -0.3684 -0.5448  0.2523
   10CHTO  H189 3917   4.159   5.638   0.208 -0.2003 -0.1451  0.5015
   10CHTO   N18 3918   4.175   5.642   0.413  0.2694  0.2591 -0.6770
   10CHTO  H176 3919   4.117   5.661   0.502  0.6685  0.8428 -0.5325
   10CHTO  H177 3920   4.233   5.555   0.441 -2.1795 -1.0828  0.2849
   10CHTO  C105 3921   3.969   5.708   0.282  0.3156  0.1997 -0.1661
   10CHTO  H192 3922   3.908   5.703   0.373 -4.1615 -1.5071 -3.1147
   10CHTO   O65 3923   3.883   5.676   0.173  0.2360  0.1505  0.4552
   10CHTO  C100 3924   3.838   5.540   0.165  0.5256  0.3099  0.5525
   10CHTO  H187 3925   3.791   5.514   0.261  0.8241  1.6924  1.0771
   10CHTO  C107 3926   3.724   5.518   0.061  0.1131 -0.4612 -0.9486
   10CHTO   O70 3927   3.764   5.570  -0.070  0.0004  0.2659 -0.3473
   10CHTO  H170 3928   3.682   5.595  -0.109 -0.5411  1.4325  1.4935
   10CHTO   O57 3929   4.038   5.865   0.277  0.2972  0.3030  0.5362
   10CHTO   C85 3930   3.964   5.971   0.313 -0.0362 -0.2458  0.5805
   10CHTO  H157 3931   3.854   5.963   0.300 -0.2092  0.5283  1.5237
   10CHTO   C83 3932   4.002   6.072   0.200 -0.2426 -0.9738 -0.0776
   10CHTO  H155 3933   3.981   6.038   0.099  0.4248 -1.2322 -0.1314
   10CHTO   O56 3934   4.151   6.087   0.202  0.0793 -0.5873  0.2076
   10CHTO  H135 3935   4.184   6.151   0.141 -1.3316 -0.2594 -0.2330
   10CHTO   C81 3936   3.922   6.207   0.228  0.7020 -0.0704 -0.2690
   10CHTO  H153 3937   3.814   6.192   0.233  0.1191  3.6130 -0.6559
   10CHTO   N14 3938   3.944   6.304   0.120 -0.1890 -0.4505 -0.3239
   10CHTO  H141 3939   3.876   6.384   0.138  0.9689  0.1443  1.4728
   10CHTO  H142 3940   4.043   6.342   0.132  0.2886 -1.3701 -1.2176
   10CHTO   C79 3941   3.965   6.264   0.371 -0.6568 -0.3114  0.1673
   10CHTO  H151 3942   3.898   6.347   0.393 -2.5015 -1.4577 -1.0384
   10CHTO   O52 3943   3.948   6.161   0.476 -0.4760  0.1213  0.3140
   10CHTO   C86 3944   4.001   6.029   0.462 -0.1818  0.2118 -0.4253
   10CHTO  H158 3945   4.110   6.037   0.482 -0.1067 -2.3396  0.3729
   10CHTO   C90 3946   3.948   5.940   0.580 -0.4221  0.0540  0.3309
   10CHTO   O60 3947   4.023   5.973   0.698 -0.7719 -0.2798 -1.0548
   10CHTO  H138 3948   4.003   5.908   0.762  0.8675 -1.0386 -1.2768
   10CHTO   O50 3949   4.088   6.333   0.386 -0.3290 -0.0841 -0.1456
   10CHTO   C73 3950   4.222   6.304   0.424  0.3086 -0.1669  0.6578
   10CHTO  H145 3951   4.258   6.204   0.397 -0.2878 -0.2658  0.1928
   10CHTO   C74 3952   4.230   6.302   0.574 -0.0315  1.2373 -0.2631
   10CHTO  H146 3953   4.157   6.226   0.607  0.0810  1.6110  0.8960
   10CHTO   O54 3954   4.362   6.251   0.606  0.4917 -0.7155  0.1853
   10CHTO  H133 3955   4.376   6.165   0.571 -3.0856 -1.7467  1.1157
   10CHTO   C75 3956   4.204   6.439   0.642 -0.4872 -0.2913 -0.3551
   10CHTO  H147 3957   4.105   6.474   0.609 -0.6116  1.6531  1.9462
   10CHTO   N13 3958   4.198   6.438   0.791  0.4163 -0.1438  0.0617
   10CHTO  H139 3959   4.294   6.400   0.821  0.0672 -0.3518  0.9495
   10CHTO  H140 3960   4.209   6.539   0.828 -0.8339  0.1867 -0.4383
   10CHTO   C76 3961   4.306   6.548   0.576 -0.4535  0.1773 -0.6598
   10CHTO  H148 3962   4.401   6.512   0.617 -1.9633 -0.1098  2.7109
   10CHTO   O49 3963   4.307   6.539   0.430 -0.1879 -0.5664  0.6639
   10CHTO   C77 3964   4.329   6.409   0.372 -0.3089 -0.5815 -0.4679
   10CHTO  H149 3965   4.429   6.365   0.376  0.3553  0.9434 -0.1119
   10CHTO   C88 3966   4.325   6.429   0.221  0.1439 -0.1203 -0.0508
   10CHTO   O58 3967   4.380   6.312   0.151 -0.3822  0.1467  0.0558
   10CHTO  H136 3968   4.356   6.323   0.061 -0.4912  1.3152  0.2243
   10CHTO   O51 3969   4.265   6.693   0.620  0.4656  0.9935 -0.1997
   10CHTO   C78 3970   4.374   6.797   0.643 -0.4564 -0.1348  0.3114
   10CHTO  H150 3971   4.461   6.759   0.586 -0.3908 -1.0757  1.0251
   10CHTO   C80 3972   4.421   6.807   0.790 -0.0399 -0.9820 -0.4655
   10CHTO  H152 3973   4.331   6.828   0.852 -2.1187 -0.0506 -3.6920
   10CHTO   O55 3974   4.463   6.675   0.827  0.3858  0.8815  0.2778
   10CHTO  H134 3975   4.515   6.687   0.904  0.0067 -1.2919  0.8889
   10CHTO   C84 3976   4.539   6.916   0.803  1.0740 -0.5222  0.1145
   10CHTO  H156 3977   4.622   6.889   0.738  3.4766  0.6674  2.5882
   10CHTO   N15 3978   4.594   6.929   0.944  0.3659  0.2081  1.2773
   10CHTO  H143 3979   4.515   6.936   1.017  0.1629  0.1829  1.0608
   10CHTO  H144 3980   4.662   6.854   0.978  2.0694  0.3412 -1.7510
   10CHTO   C87 3981   4.508   7.052   0.739 -0.2907  0.2619  0.0734
   10CHTO  H159 3982   4.435   7.104   0.800  0.3226  1.6971 -0.3918
   10CHTO   O53 3983   4.445   7.030   0.613 -0.3611  0.2449  0.2945
   10CHTO   C82 3984   4.332   6.940   0.601 -1.0770  0.1060 -0.7423
   10CHTO  H154 3985   4.246   6.973   0.660 -0.3886 -3.2362  2.2630
   10CHTO   C89 3986   4.272   6.933   0.457  0.9766 -0.1241 -0.3738
   10CHTO   O59 3987   4.372   6.883   0.366 -0.1966  0.7222  0.0676
   10CHTO  H137 3988   4.334   6.852   0.287 -0.3230 -3.6879  1.7094
   10CHTO   O45 3989   4.651   7.138   0.715  0.0583 -0.1010 -0.3224
   10CHTO   C67 3990   4.635   7.279   0.703 -0.2143  0.1488  0.7082
   10CHTO  H124 3991   4.534   7.303   0.667 -0.4380 -1.6835  0.0630
   10CHTO   C65 3992   4.663   7.347   0.848  0.6137 -0.5769  0.0156
   10CHTO  H122 3993   4.607   7.279   0.912 -0.6142 -2.6868 -3.1842
   10CHTO   O44 3994   4.593   7.471   0.862 -0.1836  0.3698 -0.0997
   10CHTO  H102 3995   4.644   7.539   0.822 -1.1122  1.0045 -0.2093
   10CHTO   C63 3996   4.817   7.333   0.878 -0.4834  0.6173 -0.0378
   10CHTO  H120 3997   4.851   7.230   0.867  1.2365  1.1402  0.2886
   10CHTO   N11 3998   4.842   7.369   1.022  0.4168 -0.4795  0.0635
   10CHTO  H108 3999   4.910   7.296   1.061  0.8459 -0.0814  0.0491
   10CHTO  H109 4000   4.753   7.383   1.081 -0.6157 -0.0487 -1.5772
   10CHTO   C61 4001   4.901   7.419   0.776 -0.2559 -0.8227  0.2748
   10CHTO  H118 4002   5.005   7.386   0.788 -0.1913  0.0362  2.4368
   10CHTO   O40 4003   4.868   7.380   0.642 -0.2178 -0.3200  0.0570
   10CHTO   C68 4004   4.730   7.347   0.594  0.3210  0.0289  0.1646
   10CHTO  H125 4005   4.749   7.272   0.516  4.0360  0.6845  0.3626
   10CHTO   C72 4006   4.675   7.479   0.527  0.4600 -0.1560  0.1890
   10CHTO   O48 4007   4.749   7.508   0.412  0.0879 -0.4377  0.3710
   10CHTO  H105 4008   4.697   7.521   0.335  0.6545  1.0613  0.2307
   10CHTO   O38 4009   4.886   7.565   0.809 -0.3410 -0.3840  0.0992
   10CHTO   C55 4010   4.987   7.655   0.765  0.3654  0.0509  0.3656
   10CHTO  H112 4011   5.030   7.607   0.676 -1.7302 -1.0668 -0.0658
   10CHTO   C56 4012   5.092   7.656   0.894  0.4205 -0.8346 -0.2152
   10CHTO  H113 4013   5.032   7.664   0.986  0.3430 -1.6274 -0.1969
   10CHTO   O42 4014   5.163   7.530   0.895  0.0861 -0.2842 -0.5360
   10CHTO  H100 4015   5.203   7.500   0.974  1.8161  1.2781 -0.7583
   10CHTO   C57 4016   5.198   7.775   0.900 -0.5252  0.0344 -0.7889
   10CHTO  H114 4017   5.271   7.733   0.831 -1.4313 -0.3869 -1.4954
   10CHTO   N10 4018   5.272   7.791   1.032 -0.0122 -0.0359  0.2038
   10CHTO  H106 4019   5.341   7.708   1.042  1.0291  1.0828  2.5903
   10CHTO  H107 4020   5.202   7.789   1.113  0.2381  2.1462  0.5037
   10CHTO   C58 4021   5.131   7.900   0.848  0.5296 -0.8486  0.1095
   10CHTO  H115 4022   5.069   7.936   0.933 -0.5395 -3.4990  0.4873
   10CHTO   O37 4023   5.049   7.886   0.731  0.5631 -0.2100  0.0433
   10CHTO   C59 4024   4.930   7.799   0.747 -0.0000  0.6760  0.2309
   10CHTO  H116 4025   4.877   7.817   0.840 -1.2713 -0.9669 -0.1529
   10CHTO   C70 4026   4.831   7.822   0.629  0.0005 -0.1229 -0.3352
   10CHTO   O46 4027   4.896   7.808   0.497  0.1104 -0.2832  0.4728
   10CHTO  H103 4028   4.843   7.845   0.430  0.0604 -0.3369  0.4821
   10CHTO   O39 4029   5.262   8.017   0.822 -0.2108  0.0057 -0.0990
   10CHTO   C60 4030   5.218   8.146   0.767  0.3473 -0.2150 -0.0780
   10CHTO  H117 4031   5.131   8.129   0.703  1.2030  0.5787 -1.4885
   10CHTO   C62 4032   5.207   8.233   0.900 -0.7337  0.2690 -0.0824
   10CHTO  H119 4033   5.131   8.186   0.964  1.2853 -0.1119  2.0983
   10CHTO   O43 4034   5.330   8.226   0.974 -0.4750 -0.3227  0.3369
   10CHTO  H101 4035   5.316   8.155   1.034  1.2198 -1.8578 -1.0382
   10CHTO   C66 4036   5.155   8.382   0.859  0.0507 -0.1033 -0.0142
   10CHTO  H123 4037   5.067   8.366   0.798 -0.0395 -2.2476  0.6499
   10CHTO   N12 4038   5.133   8.466   0.980 -0.4172 -0.9726 -0.3833
   10CHTO  H110 4039   5.175   8.433   1.074  4.1317  0.4918 -1.7892
   10CHTO  H111 4040   5.026   8.478   0.995 -0.4309  1.8783 -2.4163
   10CHTO   C69 4041   5.252   8.441   0.760 -0.2349 -0.1830  0.1732
   10CHTO  H126 4042   5.344   8.463   0.819 -0.7995  4.8020 -0.6147
   10CHTO   O41 4043   5.293   8.350   0.639  0.3492  0.3405 -0.3090
   10CHTO   C64 4044   5.328   8.211   0.675  0.7861  0.3698  0.1376
   10CHTO  H121 4045   5.422   8.221   0.733  0.3326  1.5771  0.6812
   10CHTO   C71 4046   5.340   8.131   0.539 -0.5118  0.3451  0.1428
   10CHTO   O47 4047   5.209   8.124   0.479  0.0576 -0.3295 -0.6453
   10CHTO  H104 4048   5.216   8.088   0.393  0.2845 -0.8804 -0.3986
   10CHTO   O34 4049   5.182   8.579   0.703 -0.2466 -0.1341  0.0068
   10CHTO   C49 4050   5.236   8.723   0.640 -0.1006 -0.8305 -1.1844
   10CHTO   H91 4051   5.330   8.701   0.590  0.8593 -0.1941  0.3326
   10CHTO   C47 4052   5.265   8.831   0.756  0.2334 -0.6216  0.2071
   10CHTO   H89 4053   5.319   8.911   0.702 -0.8768 -0.5823 -0.8666
   10CHTO   O33 4054   5.350   8.767   0.854 -0.3215  0.1103 -0.0269
   10CHTO   H70 4055   5.296   8.711   0.906  0.1672 -0.7162 -0.4001
   10CHTO   C45 4056   5.135   8.878   0.823  0.2326 -0.6247 -0.0071
   10CHTO   H87 4057   5.071   8.795   0.859 -0.6726  1.0789  2.5121
   10CHTO    N8 4058   5.158   8.968   0.940  0.6587 -0.5983 -0.4918
   10CHTO   H75 4059   5.146   8.920   1.036 -0.6120  1.5014  0.4449
   10CHTO   H76 4060   5.263   8.992   0.940  0.4413  0.6171  2.3011
   10CHTO   C43 4061   5.045   8.950   0.719 -0.4640 -0.1862 -0.0969
   10CHTO   H85 4062   4.955   8.974   0.775  1.2770  0.8249  2.3408
   10CHTO   O29 4063   5.020   8.859   0.606  0.4389  0.2285 -0.7001
   10CHTO   C50 4064   5.133   8.786   0.543 -0.1198  0.2966  0.1743
   10CHTO   H92 4065   5.091   8.708   0.479 -2.2040  0.2607  1.5338
   10CHTO   C54 4066   5.206   8.868   0.430 -0.0901 -0.2111 -0.2325
   10CHTO   O36 4067   5.114   8.910   0.325 -0.4153  0.7858  0.3337
   10CHTO   H72 4068   5.154   8.941   0.246  0.1769  1.2985  0.8248
   10CHTO   O27 4069   5.099   9.076   0.677  0.3893 -0.3772 -0.1259
   10CHTO   C37 4070   5.096   9.171   0.566  0.1976 -0.4187 -0.0366
   10CHTO   H79 4071   5.167   9.129   0.494  1.9938  0.6182  1.0916
   10CHTO   C38 4072   4.958   9.180   0.505 -0.1971  0.2742 -0.3375
   10CHTO   H80 4073   4.889   9.210   0.585  1.9495 -0.9290  2.0218
   10CHTO   O31 4074   4.916   9.055   0.446  0.2495  0.9416 -0.3693
   10CHTO   H68 4075   4.933   8.989   0.510  1.5955  3.4256  1.9550
   10CHTO   C39 4076   4.962   9.285   0.389  0.8754  0.0319 -0.1767
   10CHTO   H81 4077   5.021   9.245   0.307 -1.4655  1.9906 -2.8759
   10CHTO    N7 4078   4.825   9.321   0.325  0.1424  0.4169  0.9909
   10CHTO   H73 4079   4.843   9.404   0.258  0.7359 -0.8203 -0.4125
   10CHTO   H74 4080   4.785   9.239   0.267  0.0743  0.1032  1.4818
   10CHTO   C40 4081   5.046   9.418   0.418 -0.1257  0.5792 -0.1144
   10CHTO   H82 4082   4.985   9.495   0.465 -0.8107  0.2425 -0.4427
   10CHTO   O26 4083   5.169   9.390   0.490  0.2476  0.9043  0.0758
   10CHTO   C41 4084   5.150   9.312   0.614 -0.0441 -0.4920  0.5958
   10CHTO   H83 4085   5.086   9.359   0.690 -1.3752 -1.6874  0.2275
   10CHTO   C52 4086   5.295   9.286   0.679 -0.4988 -0.3575  0.2463
   10CHTO   O35 4087   5.372   9.389   0.719  0.2830 -0.4137  0.1801
   10CHTO   H71 4088   5.461   9.371   0.697  0.3945 -0.9633  1.0753
   10CHTO   O28 4089   5.100   9.482   0.301  0.0267 -0.0071 -0.0533
   10CHTO   C42 4090   5.085   9.621   0.254 -0.1441 -0.1866  0.0768
   10CHTO   H84 4091   4.997   9.653   0.311  1.6034  1.1073  2.1262
   10CHTO   C44 4092   5.057   9.635   0.105  0.9167  0.6777  0.0820
   10CHTO   H86 4093   5.131   9.578   0.047 -0.2087 -0.1544 -0.5516
   10CHTO   O32 4094   4.931   9.566   0.082  0.1467 -0.0176  0.2506
   10CHTO   H69 4095   4.858   9.625   0.086  1.2031  1.8150 -4.2489
   10CHTO   C48 4096   5.056   9.788   0.051  0.5906  0.1930  0.0134
   10CHTO   H90 4097   4.973   9.845   0.093 -0.3701 -1.0710 -0.1286
   10CHTO    N9 4098   5.049   9.784  -0.099  0.2956 -0.7548  0.2538
   10CHTO   H77 4099   5.084   9.878  -0.141  0.5191  0.0148  2.0813
   10CHTO   H78 4100   5.078   9.693  -0.149  0.3266 -1.3040  1.2598
   10CHTO   C51 4101   5.182   9.863   0.103  0.4145  0.5120  1.3924
   10CHTO   H93 4102   5.273   9.820   0.062  0.1859  1.3059  0.0114
   10CHTO   O30 4103   5.176   9.852   0.249  0.4386 -0.1156  0.5313
   10CHTO   C46 4104   5.207   9.712   0.303 -0.6275 -0.1259 -0.3407
   10CHTO   H88 4105   5.299   9.669   0.264  0.7103  2.1995  0.1597
   10CHTO   C53 4106   5.218   9.719   0.451  0.6191  0.0415  0.1188
   10CHTO   O72 4107   5.101   9.773   0.514  0.2271 -0.1287 -0.0791
   10CHTO  H199 4108   5.019   9.735   0.490 -0.3969  0.2769  1.3550
   10CHTO   O22 4109   5.177  10.002   0.074  0.4817 -0.7493 -0.6590
   10CHTO   C31 4110   5.302  10.079   0.075 -0.1044  0.1227  0.1680
   10CHTO   H59 4111   5.269  10.185   0.085  1.3007  0.6851 -1.0329
   10CHTO   C29 4112   5.399  10.053   0.193 -0.4193  0.4777  0.7746
   10CHTO   H57 4113   5.445   9.955   0.173  0.9228  1.3267 -0.4512
   10CHTO   O21 4114   5.343  10.059   0.330  0.3798  0.0446  0.1299
   10CHTO   H37 4115   5.412  10.072   0.392  0.0587 -0.8961  0.6947
   10CHTO   C27 4116   5.512  10.166   0.186  0.6470  0.4791  0.2340
   10CHTO   H55 4117   5.457  10.260   0.196  0.3842  0.5661 -1.8795
   10CHTO    N5 4118   5.610  10.165   0.298  0.3473 -1.2425 -1.2047
   10CHTO   H43 4119   5.679  10.245   0.275 -0.4432 -0.9189 -2.5560
   10CHTO   H44 4120   5.671  10.077   0.309  1.7740  0.1184  2.4439
   10CHTO   C25 4121   5.583  10.160   0.044 -0.4338  0.0873 -0.4468
   10CHTO   H53 4122   5.628  10.062   0.021 -2.6946 -1.4432  1.4202
   10CHTO   O17 4123   5.477  10.177  -0.063 -0.5073  0.0730  0.0298
   10CHTO   C32 4124   5.378  10.074  -0.059 -0.1746 -0.0809  0.4780
   10CHTO   H60 4125   5.432   9.980  -0.070 -0.6743 -0.6150  2.3990
   10CHTO   C36 4126   5.295  10.076  -0.189  0.3706  0.4265  0.2142
   10CHTO   O25 4127   5.193  10.176  -0.192  0.0464  0.6573 -0.6488
   10CHTO   H40 4128   5.161  10.186  -0.279  0.6857 -0.7434 -1.0655
   10CHTO   O15 4129   5.691  10.276   0.031 -0.7373 -0.8367  0.5847
   10CHTO   C19 4130   5.705  10.421   0.027  0.1586  0.0010 -0.1355
   10CHTO   H47 4131   5.726  10.442  -0.079 -0.3961  2.4209  0.2086
   10CHTO   C20 4132   5.586  10.510   0.073  0.4192  0.4884  0.4725
   10CHTO   H48 4133   5.569  10.497   0.180 -0.4163 -1.9506  0.0685
   10CHTO   O19 4134   5.473  10.460  -0.007  0.2057 -0.3579 -0.0425
   10CHTO   H35 4135   5.460  10.367  -0.002  0.6618 -0.5099 -1.3910
   10CHTO   C21 4136   5.615  10.668   0.050 -0.0092 -0.5645 -0.8448
   10CHTO   H49 4137   5.615  10.690  -0.057 -0.0505  0.8044 -0.5704
   10CHTO    N4 4138   5.512  10.760   0.109 -0.7364 -0.0819  0.4206
   10CHTO   H41 4139   5.547  10.812   0.196  0.3389 -2.1971  1.2945
   10CHTO   H42 4140   5.427  10.696   0.130  0.0164 -1.4993 -0.7116
   10CHTO   C22 4141   5.758  10.705   0.110  0.3272  0.4086 -0.0840
   10CHTO   H50 4142   5.743  10.707   0.218 -0.6347 -1.5122 -0.1679
   10CHTO   O14 4143   5.857  10.610   0.076 -0.0359 -0.4750  0.4829
   10CHTO   C23 4144   5.829  10.474   0.111 -0.5200  0.0825  0.2439
   10CHTO   H51 4145   5.813  10.466   0.219  0.5912 -0.8043  0.3507
   10CHTO   C34 4146   5.952  10.394   0.098  0.2408 -0.1981  0.3486
   10CHTO   O23 4147   5.979  10.371  -0.035 -0.5625  0.2755 -0.1540
   10CHTO   H38 4148   6.027  10.447  -0.061 -0.3825 -0.0959 -0.9146
   10CHTO   O16 4149   5.808  10.830   0.052  0.1050 -0.0036 -0.0245
   10CHTO   C24 4150   5.919  10.887   0.146  0.9089 -0.2383  0.5304
   10CHTO   H52 4151   5.977  10.806   0.191  1.0794 -1.2636 -1.4449
   10CHTO   C26 4152   5.857  10.979   0.248  0.3909  0.5557 -0.1347
   10CHTO   H54 4153   5.780  11.038   0.194 -0.2505 -2.6744 -2.9369
   10CHTO   O20 4154   5.792  10.898   0.346 -0.1741 -0.1630  0.4490
   10CHTO   H36 4155   5.740  10.945   0.408 -2.5504 -0.6983 -1.0537
   10CHTO   C30 4156   5.966  11.070   0.307 -0.0785 -0.1911  0.0137
   10CHTO   H58 4157   6.018  11.014   0.386  0.7418 -0.7589 -0.9153
   10CHTO    N6 4158   5.897  11.183   0.378  0.0091  0.2120  0.0341
   10CHTO   H45 4159   5.959  11.253   0.433 -0.3744 -0.0928  0.8653
   10CHTO   H46 4160   5.818  11.148   0.443  2.3763 -2.2171  1.7043
   10CHTO   C33 4161   6.070  11.121   0.203  0.6519  0.0504  0.1114
   10CHTO   H61 4162   6.022  11.189   0.130 -0.6665 -1.0455 -0.0501
   10CHTO   O18 4163   6.124  11.013   0.129  0.4797  0.6292 -0.0696
   10CHTO   C28 4164   6.015  10.956   0.047  0.4669 -0.2294  0.4594
   10CHTO   H56 4165   5.968  11.041  -0.004  0.1999  1.1350  2.8862
   10CHTO   C35 4166   6.069  10.858  -0.064 -0.8415 -0.3183  0.1646
   10CHTO   O24 4167   6.138  10.742  -0.018  0.1166  0.6082  0.1312
   10CHTO   H39 4168   6.208  10.770   0.037 -0.6393 -0.5734  1.7034
   10CHTO    O9 4169   6.172  11.199   0.271  0.0003 -0.2811 -0.6486
   10CHTO   C13 4170   6.264  11.297   0.156 -0.1488  1.1182 -0.5470
   10CHTO   H26 4171   6.205  11.315   0.064 -0.1775  1.4140 -0.4725
   10CHTO   C11 4172   6.398  11.219   0.126  0.5433 -0.2826  0.2080
   10CHTO   H24 4173   6.361  11.128   0.075  0.9951 -0.0517 -0.5456
   10CHTO    O8 4174   6.462  11.183   0.254 -0.0965  0.0298  0.0499
   10CHTO    H3 4175   6.497  11.258   0.299 -0.3458 -0.0043  0.3046
   10CHTO    C9 4176   6.483  11.300   0.027  0.3580  0.4747 -0.0769
   10CHTO   H22 4177   6.427  11.309  -0.067 -0.7881  2.0918  0.7383
   10CHTO    N2 4178   6.605  11.221  -0.016  0.2774 -0.5449 -0.1474
   10CHTO   H10 4179   6.622  11.242  -0.120 -0.7337 -1.3267 -0.4747
   10CHTO   H11 4180   6.606  11.114   0.002 -1.0794 -0.2346  1.9600
   10CHTO    C7 4181   6.505  11.449   0.078  0.3120 -0.1738  0.4058
   10CHTO   H20 4182   6.441  11.501   0.003  1.2756 -1.4201 -1.2965
   10CHTO    O4 4183   6.444  11.468   0.207  0.4352  0.1642 -0.0000
   10CHTO   C14 4184   6.306  11.440   0.213  0.1116 -0.0383  0.5390
   10CHTO   H27 4185   6.266  11.519   0.146  0.4392  0.1992  0.6198
   10CHTO   C18 4186   6.256  11.475   0.353 -0.6574 -0.2277  0.2051
   10CHTO   O13 4187   6.296  11.384   0.457  0.0012 -0.0841  0.0037
   10CHTO    H7 4188   6.271  11.295   0.441  0.2003  0.1837 -1.9939
   10CHTO    O2 4189   6.660  11.522   0.087  0.5915  0.0898 -0.4353
   10CHTO    C1 4190   6.677  11.648   0.161  0.4618  0.5545  0.4364
   10CHTO   H14 4191   6.642  11.633   0.265  2.4014  1.3799  1.2245
   10CHTO    C2 4192   6.606  11.768   0.095  0.3384  0.3168 -1.3384
   10CHTO   H15 4193   6.642  11.773  -0.008  0.7321 -1.4966 -1.3032
   10CHTO    O6 4194   6.463  11.751   0.102 -0.3009 -0.4937  0.3279
   10CHTO    H1 4195   6.432  11.798   0.177 -0.3137  0.7065 -0.3986
   10CHTO    C3 4196   6.645  11.910   0.161 -0.4995  0.2447 -0.2081
   10CHTO   H16 4197   6.594  11.918   0.258  1.5922  0.3103  0.9247
   10CHTO    N1 4198   6.593  12.023   0.075  0.1949 -0.2088  0.2578
   10CHTO    H8 4199   6.619  12.012  -0.029 -1.0528  0.0116 -0.0885
   10CHTO    H9 4200   6.485  12.018   0.077  0.2665 -1.5805  1.4153
   10CHTO    C4 4201   6.797  11.916   0.199  0.7106 -0.1779 -0.4248
   10CHTO   H17 4202   6.855  11.942   0.111 -0.6432  3.5078 -0.3034
   10CHTO    O1 4203   6.848  11.796   0.252 -0.3941  0.0859  0.4559
   10CHTO    C5 4204   6.830  11.679   0.173  0.1875 -0.3141  0.7860
   10CHTO   H18 4205   6.866  11.699   0.072 -0.9790  0.7377  0.5673
   10CHTO   C16 4206   6.921  11.567   0.243  0.3257 -0.6364 -0.0122
   10CHTO   O11 4207   6.920  11.443   0.169  0.0401  0.1217 -0.0407
   10CHTO    H5 4208   6.937  11.372   0.229 -0.7201  1.7142  2.1102
   10CHTO    O3 4209   6.814  12.019   0.303 -0.1846 -0.0017 -0.4974
   10CHTO    C6 4210   6.934  12.093   0.289 -0.5005  0.3644  0.2819
   10CHTO   H19 4211   7.012  12.046   0.229 -1.4795 -1.2180  0.2304
   10CHTO    C8 4212   6.901  12.240   0.238 -0.2856  0.1483 -0.3227
   10CHTO   H21 4213   6.824  12.281   0.304  0.1521  0.2649  0.1191
   10CHTO    O7 4214   6.850  12.226   0.104 -0.0591  0.2096 -0.0336
   10CHTO    H2 4215   6.812  12.304   0.068 -0.8734 -0.6752 -1.1341
   10CHTO   C12 4216   7.024  12.342   0.236 -0.3494  0.7705  0.2638
   10CHTO   H25 4217   7.101  12.307   0.165 -2.6730  0.2407 -2.0785
   10CHTO    N3 4218   6.990  12.481   0.188  0.3905  0.0592  0.3586
   10CHTO   H12 4219   6.907  12.522   0.244 -0.6904 -1.2172 -0.2926
   10CHTO   H13 4220   7.082  12.538   0.185  0.3479  0.1231  0.2903
   10CHTO   C15 4221   7.083  12.340   0.388 -0.2231  0.5377  0.0115
   10CHTO   H28 4222   7.022  12.395   0.459 -0.1204  2.1792 -1.1282
   10CHTO   O10 4223   7.215  12.394   0.397 -0.1328  0.3034  0.5011
   10CHTO    H4 4224   7.225  12.468   0.340  1.5169 -1.1247 -1.1563
   10CHTO    O5 4225   7.106  12.200   0.430 -0.0152 -0.3167  0.7601
   10CHTO   C10 4226   6.996  12.121   0.432 -0.1178  0.0933  0.2939
   10CHTO   H23 4227   6.916  12.169   0.488 -0.2045 -1.5357  1.5933
   10CHTO   C17 4228   7.034  11.989   0.499 -0.0264  0.2426 -0.1242
   10CHTO   O12 4229   6.932  11.896   0.530  0.5748 -0.1778  0.0642
   10CHTO    H6 4230   6.901  11.851   0.454 -1.0382 -0.0638  0.6336
   11CHTO  H203 4231   6.441   4.651  -0.247 -0.1035 -0.0623 -0.3684
   11CHTO   O82 4232   6.532   4.656  -0.226 -0.2038  0.5574 -0.0413
   11CHTO  C123 4233   6.529   4.736  -0.107  0.6434  0.5924 -0.0252
   11CHTO  H227 4234   6.634   4.759  -0.082  0.9174  1.2480 -1.7463
   11CHTO   O77 4235   6.455   4.863  -0.138  0.2814 -0.6612  0.7769
   11CHTO  C118 4236   6.468   4.956  -0.031  0.0416  0.4859 -0.0715
   11CHTO  H222 4237   6.570   4.990  -0.009 -0.2202  2.2107 -1.3258
   11CHTO  C125 4238   6.399   5.085  -0.087 -0.3071 -0.5958 -0.1568
   11CHTO   O84 4239   6.479   5.131  -0.193 -0.4680 -0.3187 -0.0967
   11CHTO  H205 4240   6.540   5.192  -0.156 -1.6441  1.3239 -0.8027
   11CHTO  C114 4241   6.401   4.906   0.096  0.4375 -0.3614 -0.1911
   11CHTO  H218 4242   6.295   4.898   0.071  0.3635  0.1457 -0.0377
   11CHTO  C116 4243   6.457   4.764   0.142  0.0747 -0.5558  0.2545
   11CHTO  H220 4244   6.551   4.771   0.201 -1.2524  0.6289  2.2931
   11CHTO   O79 4245   6.356   4.717   0.232  0.0474 -0.2534  0.2418
   11CHTO  H201 4246   6.383   4.677   0.313 -0.1464 -0.6518  0.1109
   11CHTO  C120 4247   6.464   4.664   0.019 -0.9399 -0.0401  0.0443
   11CHTO  H224 4248   6.360   4.652  -0.019  0.0783 -1.5533 -2.3743
   11CHTO   N21 4249   6.531   4.537   0.062  0.1848  0.0954 -0.5698
   11CHTO  H211 4250   6.613   4.551   0.131 -0.5369  1.1021  0.0896
   11CHTO  H212 4251   6.560   4.475  -0.022 -1.2750 -0.3897 -0.7230
   11CHTO   O75 4252   6.414   5.023   0.177 -0.7276  0.0597  0.2457
   11CHTO  C112 4253   6.288   5.059   0.299  0.7554 -0.0866 -0.4923
   11CHTO  H216 4254   6.332   5.054   0.399  1.0152 -0.0578 -0.6057
   11CHTO   O73 4255   6.182   4.968   0.282 -0.5542  0.2438  0.0549
   11CHTO  C113 4256   6.072   4.976   0.377  0.1679  0.4934 -1.2709
   11CHTO  H217 4257   6.111   4.978   0.481 -0.3573 -3.0180 -0.9353
   11CHTO  C124 4258   5.988   4.845   0.369 -0.4448 -0.7549 -0.4303
   11CHTO   O83 4259   6.058   4.732   0.427  0.6930  0.5811 -0.2394
   11CHTO  H204 4260   6.016   4.718   0.510 -0.1980  1.7515 -0.4761
   11CHTO  C109 4261   5.994   5.108   0.353  0.3161 -0.1210 -0.4465
   11CHTO  H213 4262   5.939   5.092   0.259 -0.5555  0.1074  0.0166
   11CHTO  C110 4263   6.090   5.233   0.345  0.4344  0.0127  0.8238
   11CHTO  H214 4264   6.108   5.260   0.449  1.9626 -3.4176  1.5308
   11CHTO   O78 4265   6.027   5.337   0.272 -0.3718  0.3790 -0.5046
   11CHTO  H200 4266   5.944   5.374   0.294 -0.6432 -1.6244  2.0759
   11CHTO  C111 4267   6.229   5.205   0.272  0.5809  0.0352 -0.3524
   11CHTO  H215 4268   6.211   5.208   0.164 -1.5352  0.6425 -0.0034
   11CHTO   N19 4269   6.339   5.303   0.299  0.3009  0.6701 -0.2266
   11CHTO  H207 4270   6.406   5.279   0.218  1.0045 -0.3175  0.6325
   11CHTO  H208 4271   6.299   5.403   0.289  1.2581  1.3591  2.4536
   11CHTO   O74 4272   5.897   5.116   0.464 -0.2073 -0.3312 -0.3377
   11CHTO  C115 4273   5.736   5.131   0.436 -0.2292 -0.3715  0.0012
   11CHTO  H219 4274   5.715   5.113   0.331  0.5135 -3.4636  0.3290
   11CHTO   O76 4275   5.657   5.027   0.521  0.2500  0.0977  0.1498
   11CHTO  C122 4276   5.697   5.038   0.655 -0.0204  0.8702  0.0283
   11CHTO  H226 4277   5.794   4.989   0.664 -0.2818 -0.0483 -1.8474
   11CHTO  C126 4278   5.594   4.946   0.735  0.0529  0.4282  0.1870
   11CHTO   O85 4279   5.634   4.931   0.869  0.5688  0.2030 -0.2674
   11CHTO  H206 4280   5.570   4.963   0.929  0.7971 -0.9506  0.6034
   11CHTO  C121 4281   5.710   5.187   0.711  0.0041  0.4412 -0.3608
   11CHTO  H225 4282   5.659   5.200   0.808  1.1027  2.3668 -0.0261
   11CHTO   O81 4283   5.846   5.211   0.730 -0.3831  0.2319  0.4371
   11CHTO  H202 4284   5.859   5.289   0.781 -2.6797  0.6590  0.4281
   11CHTO  C119 4285   5.645   5.292   0.616  0.1097  0.1032 -0.7422
   11CHTO  H223 4286   5.542   5.257   0.605  0.0137  0.1286  0.0438
   11CHTO  C117 4287   5.710   5.280   0.478 -0.3017 -0.1164 -0.1566
   11CHTO  H221 4288   5.802   5.337   0.487 -1.6111  2.5119 -2.5004
   11CHTO   N20 4289   5.630   5.357   0.378 -0.2709 -0.3327  0.4069
   11CHTO  H209 4290   5.522   5.355   0.385 -0.3127  1.4710  0.4815
   11CHTO  H210 4291   5.666   5.362   0.276 -1.3946  0.0352  0.0248
   11CHTO   O80 4292   5.627   5.456   0.674 -0.6206 -0.0352 -0.1718
   11CHTO  C103 4293   5.747   5.524   0.733  0.1822 -0.3280  0.5860
   11CHTO  H190 4294   5.797   5.451   0.797  0.1119 -1.7831 -0.9891
   11CHTO  C101 4295   5.848   5.604   0.639 -1.1031  0.2122 -0.5438
   11CHTO  H188 4296   5.798   5.671   0.568  1.1612  1.5856 -0.9037
   11CHTO   O68 4297   5.935   5.512   0.562  0.1049 -0.5683  0.5031
   11CHTO  H168 4298   5.930   5.420   0.580 -3.2196 -0.3440  0.8954
   11CHTO   C99 4299   5.950   5.697   0.727  0.1222  0.2649  0.1519
   11CHTO  H186 4300   6.012   5.637   0.797 -1.4619  0.0746  1.4157
   11CHTO   N17 4301   6.050   5.774   0.641 -0.3093  0.4896  1.0859
   11CHTO  H174 4302   6.001   5.840   0.571  0.0451  0.9062  1.2261
   11CHTO  H175 4303   6.133   5.813   0.699  0.4715  1.9959 -0.9866
   11CHTO   C97 4304   5.862   5.781   0.813 -0.5941  0.0299  0.5548
   11CHTO  H184 4305   5.803   5.848   0.749  2.3959  1.8675 -0.4141
   11CHTO   O64 4306   5.785   5.700   0.899  0.2970  0.1833 -0.1680
   11CHTO  C104 4307   5.683   5.633   0.827  0.2175 -0.0577 -1.2292
   11CHTO  H191 4308   5.624   5.702   0.766 -1.7435 -1.3632 -0.8645
   11CHTO  C108 4309   5.585   5.574   0.926  0.0048 -0.7984  0.2872
   11CHTO   O71 4310   5.493   5.657   0.994  0.1553  0.2791 -0.2175
   11CHTO  H171 4311   5.440   5.703   0.932 -3.6671 -0.6957  2.1438
   11CHTO   O62 4312   5.942   5.858   0.907  0.4983  0.0338  0.2093
   11CHTO   C91 4313   5.889   5.983   0.946 -0.4025  0.5596  0.1882
   11CHTO  H178 4314   5.783   5.982   0.921 -0.3050  1.4276 -0.2607
   11CHTO   C92 4315   5.964   6.094   0.865  0.4364  0.5270  0.3470
   11CHTO  H179 4316   6.074   6.085   0.862  0.2528 -1.7570 -1.3616
   11CHTO   O66 4317   5.928   6.072   0.724  0.1021  0.2046 -0.8343
   11CHTO  H166 4318   5.836   6.085   0.717 -0.2955 -2.2264 -0.3776
   11CHTO   C93 4319   5.930   6.244   0.911  0.1055  0.5454 -0.3044
   11CHTO  H180 4320   5.825   6.267   0.887 -0.4285 -1.4499  0.0613
   11CHTO   N16 4321   6.009   6.352   0.843  0.6262  0.0011 -0.4997
   11CHTO  H172 4322   6.113   6.346   0.872  0.9495  0.6761 -1.4920
   11CHTO  H173 4323   5.997   6.347   0.736  2.2341 -1.2302 -0.6489
   11CHTO   C94 4324   5.940   6.248   1.069 -0.2789 -0.1027 -0.4405
   11CHTO  H181 4325   6.042   6.231   1.106 -0.7944  0.3646  1.2199
   11CHTO   O61 4326   5.855   6.148   1.125  0.8295  0.4510 -0.4357
   11CHTO   C95 4327   5.902   6.014   1.103  0.6886  0.1709  0.4108
   11CHTO  H182 4328   6.006   6.001   1.134 -0.0008 -0.4502  2.5192
   11CHTO  C106 4329   5.823   5.921   1.200  0.1091 -0.1122 -0.5948
   11CHTO   O69 4330   5.861   5.787   1.187  0.3851 -0.3375 -0.1143
   11CHTO  H169 4331   5.813   5.732   1.245  0.3849  0.5666  0.7651
   11CHTO   O63 4332   5.898   6.400   1.140  0.3052 -0.1186  0.0677
   11CHTO   C96 4333   6.007   6.452   1.261  0.4520 -0.4181 -0.1129
   11CHTO  H183 4334   6.056   6.362   1.296 -1.6770 -0.9731  1.4818
   11CHTO   C98 4335   5.942   6.529   1.381 -0.6161 -0.2602  0.2261
   11CHTO  H185 4336   5.865   6.595   1.337 -1.0094  0.1851  1.5587
   11CHTO   O67 4337   5.873   6.426   1.447  0.3681 -0.1000 -0.1882
   11CHTO  H167 4338   5.809   6.452   1.511  0.6021 -1.4143  0.5913
   11CHTO  C102 4339   6.029   6.613   1.481  0.1084 -0.5571 -0.6878
   11CHTO  H189 4340   6.078   6.537   1.543  1.1145 -0.1030 -0.9041
   11CHTO   N18 4341   5.949   6.695   1.574 -0.9720 -0.4985  0.2078
   11CHTO  H176 4342   5.897   6.773   1.520  0.2202 -0.0065 -0.2342
   11CHTO  H177 4343   5.884   6.640   1.641 -1.3300  1.1338  1.2161
   11CHTO  C105 4344   6.134   6.689   1.389  0.0223 -0.4421 -0.6456
   11CHTO  H192 4345   6.084   6.759   1.322  0.3574 -0.9022 -1.3700
   11CHTO   O65 4346   6.203   6.590   1.305  0.0068  0.1995 -0.3320
   11CHTO  C100 4347   6.130   6.533   1.196  0.5384  0.6059  0.2535
   11CHTO  H187 4348   6.093   6.616   1.134 -0.2552 -0.7916 -1.2087
   11CHTO  C107 4349   6.235   6.441   1.128  0.1349  0.3984 -0.1633
   11CHTO   O70 4350   6.285   6.333   1.214 -0.1751  0.1171  0.1864
   11CHTO  H170 4351   6.218   6.279   1.250 -0.5874 -0.0719 -0.8499
   11CHTO   O57 4352   6.230   6.749   1.468  0.0589  0.4483  0.4518
   11CHTO   C85 4353   6.317   6.854   1.424 -0.4011  0.0441  0.1142
   11CHTO  H157 4354   6.332   6.906   1.521  1.6526 -0.7198  0.2326
   11CHTO   C83 4355   6.258   6.977   1.341  0.2249  0.0415 -0.0180
   11CHTO  H155 4356   6.174   7.015   1.399 -0.2049 -1.7574  0.5841
   11CHTO   O56 4357   6.201   6.942   1.210 -0.1987 -0.2592 -0.4054
   11CHTO  H135 4358   6.159   6.860   1.223  2.8672 -1.6880  0.9466
   11CHTO   C81 4359   6.363   7.094   1.334 -0.0792  0.2245 -0.0175
   11CHTO  H153 4360   6.397   7.114   1.435  0.3840 -0.1816 -0.0867
   11CHTO   N14 4361   6.310   7.221   1.275  0.0377  0.2614  0.3605
   11CHTO  H141 4362   6.203   7.215   1.277  0.0748  0.0857  2.3582
   11CHTO  H142 4363   6.342   7.308   1.327  0.1449  0.0553  0.6435
   11CHTO   C79 4364   6.498   7.035   1.262  0.0639 -0.4586 -0.0141
   11CHTO  H151 4365   6.572   7.114   1.258 -0.7178  0.2516 -0.5801
   11CHTO   O52 4366   6.553   6.918   1.338  0.0900 -0.0725 -0.4493
   11CHTO   C86 4367   6.452   6.813   1.354 -0.9187  0.0262 -0.0281
   11CHTO  H158 4368   6.428   6.774   1.253  0.4510 -0.9519  0.0070
   11CHTO   C90 4369   6.510   6.689   1.427 -0.3215 -0.1240  0.4117
   11CHTO   O60 4370   6.459   6.559   1.391 -0.8401 -0.3176 -0.6586
   11CHTO  H138 4371   6.368   6.551   1.411 -0.6603 -3.4264 -0.8549
   11CHTO   O50 4372   6.477   6.998   1.126 -0.5213  0.4373  0.1477
   11CHTO   C73 4373   6.539   6.994   0.996 -0.1028  0.1206 -0.1900
   11CHTO  H145 4374   6.580   7.092   0.967  3.8034 -1.7927 -1.4400
   11CHTO   C74 4375   6.418   6.955   0.895  0.3082 -0.3416 -0.3129
   11CHTO  H146 4376   6.335   7.023   0.917  2.1624  1.4310  1.4150
   11CHTO   O54 4377   6.462   6.986   0.765  1.1954 -0.8441 -1.0251
   11CHTO  H133 4378   6.462   7.079   0.760  4.4275 -0.4679  2.9766
   11CHTO   C75 4379   6.383   6.804   0.921 -0.3976  0.0108  0.4787
   11CHTO  H147 4380   6.338   6.793   1.021 -1.0485  0.6629  0.2619
   11CHTO   N13 4381   6.282   6.765   0.826 -0.0036  0.1205  0.1706
   11CHTO  H139 4382   6.316   6.778   0.724  1.3851  0.0997  0.6268
   11CHTO  H140 4383   6.192   6.824   0.841  0.5312  0.9358  0.2297
   11CHTO   C76 4384   6.510   6.712   0.914  0.3062  0.4518  0.4789
   11CHTO  H148 4385   6.562   6.732   0.820 -0.2329  2.7631  0.6254
   11CHTO   O49 4386   6.595   6.760   1.019 -0.8777 -0.8319  0.0873
   11CHTO   C77 4387   6.654   6.888   0.997  0.0048  0.0361  0.0984
   11CHTO  H149 4388   6.704   6.888   0.900  2.6172  1.0632  1.4050
   11CHTO   C88 4389   6.770   6.910   1.094  0.0503 -0.2279  0.4815
   11CHTO   O58 4390   6.813   7.076   1.112  0.5538  0.5738  0.0394
   11CHTO  H136 4391   6.867   7.105   1.040  1.1810 -1.6027 -0.4068
   11CHTO   O51 4392   6.476   6.549   0.939 -0.2227  0.8373 -0.1577
   11CHTO   C78 4393   6.576   6.454   0.884 -0.2886  0.7132 -0.9633
   11CHTO  H150 4394   6.659   6.481   0.816  0.7875  1.6957  0.7187
   11CHTO   C80 4395   6.482   6.355   0.812 -0.1275  0.5049  0.2927
   11CHTO  H152 4396   6.402   6.326   0.883  1.3464 -0.0668  1.7645
   11CHTO   O55 4397   6.413   6.430   0.707 -0.2861  0.4708 -0.8681
   11CHTO  H134 4398   6.382   6.381   0.633 -1.1525 -2.7401  1.4959
   11CHTO   C84 4399   6.560   6.229   0.752  0.2050 -0.6458 -0.0866
   11CHTO  H156 4400   6.626   6.258   0.670 -1.3830 -0.5052 -1.3462
   11CHTO   N15 4401   6.466   6.138   0.684 -0.0868 -0.5487 -0.3957
   11CHTO  H143 4402   6.375   6.184   0.652 -0.7030 -0.5024  1.3648
   11CHTO  H144 4403   6.514   6.091   0.601 -0.0374  1.2196 -1.4027
   11CHTO   C87 4404   6.634   6.157   0.866  0.1677  0.0332 -0.0027
   11CHTO  H159 4405   6.566   6.112   0.938  0.1050 -1.3483 -0.9253
   11CHTO   O53 4406   6.726   6.268   0.947 -0.1647  0.1624  0.3666
   11CHTO   C82 4407   6.645   6.374   1.002  0.3664 -0.4773  1.2075
   11CHTO  H154 4408   6.566   6.332   1.065 -1.8433 -0.4135 -1.4330
   11CHTO   C89 4409   6.719   6.478   1.082 -0.3368  0.7426 -0.0480
   11CHTO   O59 4410   6.790   6.419   1.187 -0.0598  0.2979 -0.0432
   11CHTO  H137 4411   6.882   6.439   1.188 -0.2824  1.5396  3.9691
   11CHTO   O45 4412   6.724   6.029   0.821  0.1555 -0.3661 -0.2416
   11CHTO   C67 4413   6.835   6.045   0.732  0.0560  0.5684 -0.3926
   11CHTO  H124 4414   6.805   6.094   0.640  0.0529  1.1838 -0.0695
   11CHTO   C65 4415   6.952   6.126   0.801 -0.1668 -0.0859 -0.4387
   11CHTO  H122 4416   6.922   6.128   0.906 -1.7476 -2.0331 -0.8234
   11CHTO   O44 4417   6.936   6.251   0.745 -0.0674  0.0205  0.2635
   11CHTO  H102 4418   7.004   6.298   0.791 -0.0521 -1.9465  2.3636
   11CHTO   C63 4419   7.087   6.041   0.803  0.1670  0.4201 -1.0505
   11CHTO  H120 4420   7.065   5.959   0.870  1.1030  0.9392 -0.1023
   11CHTO   N11 4421   7.205   6.102   0.877  0.7188  0.1650 -0.2311
   11CHTO  H108 4422   7.190   6.197   0.924  0.5723  1.4776 -2.8036
   11CHTO  H109 4423   7.247   6.025   0.937 -1.2822 -0.4464  0.4134
   11CHTO   C61 4424   7.107   5.997   0.655  0.5513  0.4252 -0.5492
   11CHTO  H118 4425   7.195   5.932   0.652 -0.6347 -1.1884 -0.6114
   11CHTO   O40 4426   7.002   5.921   0.602  0.0756  0.3860 -0.1165
   11CHTO   C68 4427   6.877   5.895   0.682  0.2538 -1.4698 -0.2018
   11CHTO  H125 4428   6.900   5.832   0.771 -1.8226 -1.2469  0.5186
   11CHTO   C72 4429   6.776   5.819   0.591  0.3225 -0.0266  0.3850
   11CHTO   O48 4430   6.651   5.766   0.651 -0.1629  0.1877 -0.2377
   11CHTO  H105 4431   6.610   5.694   0.608 -1.1544  0.6129 -0.0237
   11CHTO   O38 4432   7.138   6.104   0.566 -0.2611  0.1001 -0.4655
   11CHTO   C55 4433   7.214   6.068   0.450  0.4421  0.2574 -0.2050
   11CHTO  H112 4434   7.204   5.960   0.430 -2.1766 -0.0726  2.5019
   11CHTO   C56 4435   7.360   6.110   0.472 -0.2657  0.1272  0.4022
   11CHTO  H113 4436   7.365   6.210   0.517  1.2984  0.6580 -0.9482
   11CHTO   O42 4437   7.420   6.026   0.571  0.3782  0.1330  0.1537
   11CHTO  H100 4438   7.362   5.972   0.622 -0.9632  1.8335  0.4816
   11CHTO   C57 4439   7.422   6.115   0.326 -0.7078  0.1525  0.8958
   11CHTO  H114 4440   7.426   6.010   0.295 -0.4864  0.1731  0.8586
   11CHTO   N10 4441   7.559   6.167   0.326  0.5331 -0.1206  0.3283
   11CHTO  H106 4442   7.626   6.082   0.324  2.0705  1.0964 -0.7188
   11CHTO  H107 4443   7.572   6.228   0.239  0.9724  1.9085  1.7870
   11CHTO   C58 4444   7.336   6.183   0.212  0.7058  0.0030 -0.6193
   11CHTO  H115 4445   7.332   6.291   0.236  0.5400 -0.9501  4.0221
   11CHTO   O37 4446   7.203   6.124   0.208 -0.4117  0.4181  0.0497
   11CHTO   C59 4447   7.150   6.144   0.333 -0.1080 -0.2713  0.0730
   11CHTO  H116 4448   7.128   6.246   0.362 -0.7165 -0.2796 -0.3670
   11CHTO   C70 4449   7.000   6.103   0.331  0.1336 -0.0988  0.2904
   11CHTO   O46 4450   6.961   5.972   0.295  0.1501 -0.4195  0.3215
   11CHTO  H103 4451   6.909   5.922   0.356  0.1820 -3.5189 -2.0307
   11CHTO   O39 4452   7.410   6.164   0.063 -0.5567  0.0863 -0.4538
   11CHTO   C60 4453   7.325   6.179  -0.052  0.3085 -0.6512  0.4186
   11CHTO  H117 4454   7.233   6.120  -0.049 -0.4055  0.4170 -0.1394
   11CHTO   C62 4455   7.266   6.325  -0.089 -0.1425 -0.4582 -0.3106
   11CHTO  H119 4456   7.185   6.351  -0.017 -0.4037  3.1829 -1.8002
   11CHTO   O43 4457   7.370   6.428  -0.083  0.3638  0.0641 -0.1586
   11CHTO  H101 4458   7.357   6.482  -0.007 -0.7072 -2.1883  1.3006
   11CHTO   C66 4459   7.180   6.329  -0.225  0.4620  0.4592  0.3166
   11CHTO  H123 4460   7.115   6.243  -0.237  0.8866  0.1726  0.0149
   11CHTO   N12 4461   7.095   6.447  -0.243 -0.5202  0.6299 -1.0153
   11CHTO  H110 4462   7.039   6.462  -0.152 -0.7504 -0.3076 -0.9920
   11CHTO  H111 4463   7.036   6.432  -0.332 -0.5997 -1.3118 -0.6703
   11CHTO   C69 4464   7.277   6.299  -0.339 -0.7604  0.0441  0.2356
   11CHTO  H126 4465   7.366   6.365  -0.338 -0.9006  0.2281  0.7459
   11CHTO   O41 4466   7.329   6.143  -0.306 -0.2990  0.0822  0.2950
   11CHTO   C64 4467   7.405   6.128  -0.181 -0.0905  0.0979 -0.7169
   11CHTO  H121 4468   7.503   6.180  -0.188 -0.7651  1.4232 -0.4584
   11CHTO   C71 4469   7.441   5.979  -0.160 -0.7795  0.5345  0.4519
   11CHTO   O47 4470   7.329   5.904  -0.184 -0.4906  0.1287 -0.2626
   11CHTO  H104 4471   7.270   5.924  -0.113 -0.1289  0.3376 -0.0214
   11CHTO   O34 4472   7.203   6.309  -0.482 -0.0910  0.1890 -0.0465
   11CHTO   C49 4473   7.170   6.234  -0.601 -0.5955  0.3322 -0.1105
   11CHTO   H91 4474   7.266   6.201  -0.640 -0.4503 -3.1825  2.8833
   11CHTO   C47 4475   7.096   6.322  -0.700  0.1680  0.6126  0.2193
   11CHTO   H89 4476   7.087   6.259  -0.790 -0.8822  1.5974 -0.3826
   11CHTO   O33 4477   7.173   6.435  -0.734 -0.2473 -0.2179 -0.3605
   11CHTO   H70 4478   7.122   6.514  -0.732  0.9756  0.5618  1.1731
   11CHTO   C45 4479   6.944   6.353  -0.652  0.0080  0.3956 -0.3293
   11CHTO   H87 4480   6.944   6.444  -0.591 -0.7823  0.8108 -0.9404
   11CHTO    N8 4481   6.853   6.381  -0.767  0.6525  0.6992 -0.5940
   11CHTO   H75 4482   6.844   6.299  -0.837 -4.5897 -0.6668  1.4332
   11CHTO   H76 4483   6.893   6.469  -0.814  0.3668  0.5878 -1.0478
   11CHTO   C43 4484   6.889   6.233  -0.559 -0.2895  0.4153  0.2209
   11CHTO   H85 4485   6.926   6.251  -0.458  0.1636 -0.3100  0.1951
   11CHTO   O29 4486   6.948   6.116  -0.620  0.2757  0.8899  0.0771
   11CHTO   C50 4487   7.081   6.104  -0.571  0.0574  0.3142  0.2846
   11CHTO   H92 4488   7.092   6.088  -0.463 -0.2849 -0.0775  0.2657
   11CHTO   C54 4489   7.160   5.981  -0.634  0.0559  0.7741  0.2840
   11CHTO   O36 4490   7.169   5.985  -0.774  0.5806  0.1914 -0.1081
   11CHTO   H72 4491   7.235   5.924  -0.801 -1.8402 -1.3492 -2.7592
   11CHTO   O27 4492   6.749   6.219  -0.544  0.0387  0.2898  0.1221
   11CHTO   C37 4493   6.670   6.138  -0.444 -0.1140 -0.9433 -0.4880
   11CHTO   H79 4494   6.737   6.087  -0.374  0.8530  2.1958  0.9285
   11CHTO   C38 4495   6.599   6.233  -0.341 -0.2344  0.0320  0.3749
   11CHTO   H80 4496   6.532   6.303  -0.393 -0.9381  1.0725  2.5961
   11CHTO   O31 4497   6.703   6.308  -0.275 -0.5767  0.5141 -0.2604
   11CHTO   H68 4498   6.663   6.388  -0.246  0.9732  1.5150 -0.8306
   11CHTO   C39 4499   6.514   6.151  -0.242  0.1693 -0.0127 -0.3771
   11CHTO   H81 4500   6.577   6.087  -0.181 -0.0666 -0.8962 -1.0483
   11CHTO    N7 4501   6.435   6.232  -0.143  0.8237  0.2432  0.0079
   11CHTO   H73 4502   6.502   6.302  -0.096  1.6603 -0.1001 -0.6470
   11CHTO   H74 4503   6.345   6.275  -0.185 -0.3628 -1.8006  0.4070
   11CHTO   C40 4504   6.423   6.049  -0.319 -0.0802  0.3451 -0.6653
   11CHTO   H82 4505   6.348   6.100  -0.379 -1.3760  0.3974  0.9366
   11CHTO   O26 4506   6.505   5.960  -0.393  0.6036  0.6114 -0.0536
   11CHTO   C41 4507   6.573   6.029  -0.501 -0.6336 -0.2299 -0.1648
   11CHTO   H83 4508   6.507   6.074  -0.577  0.6316  0.2506 -0.9918
   11CHTO   C52 4509   6.662   5.929  -0.572  0.0029 -0.1163 -0.5157
   11CHTO   O35 4510   6.713   5.982  -0.712 -0.2502  0.8229 -0.2622
   11CHTO   H71 4511   6.796   6.024  -0.698  0.8426 -0.9621 -1.2823
   11CHTO   O28 4512   6.350   5.959  -0.231  0.8131  0.4532 -0.3987
   11CHTO   C42 4513   6.257   5.859  -0.282  0.2041  0.8428  0.6383
   11CHTO   H84 4514   6.291   5.843  -0.384  1.3682  1.3858  0.9295
   11CHTO   C44 4515   6.112   5.901  -0.297  0.6576 -0.2988  0.3787
   11CHTO   H86 4516   6.084   5.941  -0.199  0.1394 -1.5676  0.7634
   11CHTO   O32 4517   6.108   6.003  -0.394  0.4799  0.2325 -0.3896
   11CHTO   H69 4518   6.162   6.078  -0.379 -0.3765  0.6753  0.5863
   11CHTO   C48 4519   6.013   5.780  -0.332 -0.2008 -0.0296  0.0332
   11CHTO   H90 4520   6.023   5.740  -0.433 -1.7170 -1.6401  0.4924
   11CHTO    N9 4521   5.866   5.816  -0.331 -0.2068 -0.0070  0.6431
   11CHTO   H77 4522   5.842   5.851  -0.431  1.3122  0.2142  0.3435
   11CHTO   H78 4523   5.835   5.880  -0.250 -1.8073 -0.0276  0.0835
   11CHTO   C51 4524   6.036   5.659  -0.240  0.1364  0.1751 -1.0250
   11CHTO   H93 4525   6.009   5.687  -0.138  1.7075  0.0504 -0.5579
   11CHTO   O30 4526   6.181   5.625  -0.250  0.6803 -0.5895  0.0463
   11CHTO   C46 4527   6.279   5.724  -0.205  0.3644  0.0556  0.3388
   11CHTO   H88 4528   6.263   5.743  -0.098  0.4090 -0.6013  0.4622
   11CHTO   C53 4529   6.420   5.667  -0.235 -0.0906  0.4174  0.6667
   11CHTO   O72 4530   6.430   5.535  -0.178  0.0429  0.6473 -0.5928
   11CHTO  H199 4531   6.478   5.483  -0.240  0.0651  1.1467 -1.0015
   11CHTO   O22 4532   5.961   5.546  -0.290  0.5024  0.3470 -0.4267
   11CHTO   C31 4533   5.950   5.429  -0.204  0.2567 -0.9010  0.2775
   11CHTO   H59 4534   6.014   5.449  -0.115 -0.6139 -0.2649  0.7710
   11CHTO   C29 4535   5.812   5.411  -0.155 -0.9216 -0.0694  0.0559
   11CHTO   H57 4536   5.740   5.390  -0.236 -2.8458 -0.2799  1.7662
   11CHTO   O21 4537   5.762   5.540  -0.106 -0.4225 -0.1363  0.4194
   11CHTO   H37 4538   5.815   5.584  -0.042 -1.0574  1.5427 -0.1832
   11CHTO   C27 4539   5.803   5.297  -0.051 -0.3263 -0.3370 -0.6135
   11CHTO   H55 4540   5.870   5.326   0.031 -1.2367  1.6200 -0.5334
   11CHTO    N5 4541   5.670   5.275  -0.000 -0.6472  0.7104  0.2181
   11CHTO   H43 4542   5.653   5.331   0.091  0.3786 -1.9317  2.0925
   11CHTO   H44 4543   5.656   5.171   0.023 -2.2125  1.2764  1.9540
   11CHTO   C25 4544   5.872   5.167  -0.108 -0.3418  0.0247  0.0498
   11CHTO   H53 4545   5.811   5.122  -0.187 -1.8474 -1.7615  2.1693
   11CHTO   O17 4546   6.007   5.200  -0.162 -0.2081  0.0895  0.3213
   11CHTO   C32 4547   6.002   5.297  -0.270 -0.0325 -0.2424 -0.7718
   11CHTO   H60 4548   5.933   5.254  -0.343  0.1465 -1.2268 -0.3738
   11CHTO   C36 4549   6.143   5.295  -0.333  0.3287 -0.6294  0.1117
   11CHTO   O25 4550   6.144   5.360  -0.458 -0.2154  0.4774  0.7849
   11CHTO   H40 4551   6.207   5.311  -0.508 -1.9772 -1.3710  0.3116
   11CHTO   O15 4552   5.907   5.055   0.012  0.4349 -0.0299 -0.1350
   11CHTO   C19 4553   5.856   4.922  -0.011 -0.0203  0.3200  0.1622
   11CHTO   H47 4554   5.909   4.858   0.061  1.8735  0.4854 -1.0501
   11CHTO   C20 4555   5.709   4.890   0.022  0.0616  0.0467 -0.2301
   11CHTO   H48 4556   5.639   4.958  -0.027 -0.5361 -0.1696  0.3200
   11CHTO   O19 4557   5.701   4.889   0.168  0.7763 -0.4353 -0.3130
   11CHTO   H35 4558   5.724   4.806   0.206 -1.1986 -1.0711 -0.4408
   11CHTO   C21 4559   5.665   4.747  -0.028  0.6724 -0.6570 -0.8042
   11CHTO   H49 4560   5.723   4.670   0.023  1.7428  0.9209  0.4170
   11CHTO    N4 4561   5.520   4.718  -0.012  0.4584 -0.9864  0.0611
   11CHTO   H41 4562   5.483   4.696  -0.111 -0.8862  0.6575  0.1864
   11CHTO   H42 4563   5.489   4.636   0.052  2.9473 -0.3218  2.2220
   11CHTO   C22 4564   5.705   4.730  -0.176  0.6283  0.2495  0.6998
   11CHTO   H50 4565   5.662   4.816  -0.228  1.4725 -0.5370 -1.3796
   11CHTO   O14 4566   5.845   4.743  -0.186  0.3097 -0.2874 -0.3644
   11CHTO   C23 4567   5.900   4.870  -0.156 -0.2094 -0.0207 -0.4609
   11CHTO   H51 4568   5.862   4.935  -0.236 -1.2891 -0.0251  0.0539
   11CHTO   C34 4569   6.054   4.867  -0.175 -0.4100  0.7832 -0.7901
   11CHTO   O23 4570   6.094   4.881  -0.308  0.0219  0.0808 -0.0889
   11CHTO   H38 4571   6.184   4.907  -0.314 -0.3487  1.5297  0.3271
   11CHTO   O16 4572   5.681   4.599  -0.240  0.0087 -0.5009 -0.6506
   11CHTO   C24 4573   5.634   4.627  -0.399 -0.2424  1.0865  0.5648
   11CHTO   H52 4574   5.644   4.731  -0.429 -0.6447  0.9451 -0.0719
   11CHTO   C26 4575   5.492   4.588  -0.426  0.2186 -0.7427  0.2601
   11CHTO   H54 4576   5.480   4.479  -0.412 -0.5309 -0.7512 -0.4577
   11CHTO   O20 4577   5.417   4.659  -0.328 -0.4070  0.0481 -0.6064
   11CHTO   H36 4578   5.395   4.746  -0.356  1.4128 -0.1354 -2.7375
   11CHTO   C30 4579   5.452   4.620  -0.573 -0.3670  0.1735 -0.1290
   11CHTO   H58 4580   5.448   4.730  -0.579  2.6753  0.3730  0.5674
   11CHTO    N6 4581   5.315   4.571  -0.603  0.4537 -0.3984  0.0735
   11CHTO   H45 4582   5.275   4.579  -0.703  1.0803  1.0045 -0.0748
   11CHTO   H46 4583   5.248   4.621  -0.533  0.3223 -1.1647  0.4977
   11CHTO   C33 4584   5.558   4.562  -0.673  0.2892 -0.1804  0.4924
   11CHTO   H61 4585   5.552   4.452  -0.673  0.4367 -0.1875  0.3911
   11CHTO   O18 4586   5.687   4.586  -0.626  0.6812  0.3350  0.6754
   11CHTO   C28 4587   5.727   4.547  -0.491 -0.4981  0.5403  0.5015
   11CHTO   H56 4588   5.712   4.440  -0.477  1.0999  0.2262 -0.0916
   11CHTO   C35 4589   5.870   4.593  -0.482  0.0813 -0.2577  0.2373
   11CHTO   O24 4590   5.935   4.535  -0.370  0.4373 -0.0519 -0.0729
   11CHTO   H39 4591   6.027   4.553  -0.363  0.5627 -0.1852 -1.2391
   11CHTO    O9 4592   5.545   4.596  -0.812 -0.1307  0.5113  0.3838
   11CHTO   C13 4593   5.566   4.744  -0.844  0.3143 -0.0609  0.1101
   11CHTO   H26 4594   5.556   4.792  -0.745 -0.1065  1.9007 -0.8558
   11CHTO   C11 4595   5.446   4.782  -0.942 -0.6597 -0.1952 -0.6432
   11CHTO   H24 4596   5.349   4.762  -0.894  0.3510  1.3018  2.1275
   11CHTO    O8 4597   5.454   4.708  -1.065  0.4663 -0.3793 -0.1854
   11CHTO    H3 4598   5.444   4.615  -1.057 -0.6798 -0.3113 -0.6025
   11CHTO    C9 4599   5.457   4.936  -0.966 -0.8493 -0.6188  0.8433
   11CHTO   H22 4600   5.439   4.983  -0.868  0.8687  1.0158  0.4218
   11CHTO    N2 4601   5.347   4.992  -1.048 -0.2763 -0.3494 -0.1689
   11CHTO   H10 4602   5.376   5.063  -1.124 -1.3227  1.1263  0.7914
   11CHTO   H11 4603   5.266   4.924  -1.073 -3.0180  2.6237  0.2601
   11CHTO    C7 4604   5.608   4.986  -1.001  0.1522 -0.4613 -0.3798
   11CHTO   H20 4605   5.634   5.036  -0.905  1.6279  0.6296 -1.3227
   11CHTO    O4 4606   5.685   4.867  -1.021  0.0193 -0.1849 -0.1330
   11CHTO   C14 4607   5.708   4.799  -0.899  0.2087  0.3961 -0.0481
   11CHTO   H27 4608   5.752   4.866  -0.823 -1.3062  1.1135  0.2144
   11CHTO   C18 4609   5.829   4.695  -0.928  0.1082 -0.3492 -0.4016
   11CHTO   O13 4610   5.873   4.606  -0.824 -0.7716 -0.8006  0.0796
   11CHTO    H7 4611   5.804   4.555  -0.786 -0.2959 -0.7031  1.0946
   11CHTO    O2 4612   5.624   5.071  -1.126  0.8038  0.2972 -0.0329
   11CHTO    C1 4613   5.754   5.133  -1.146 -0.3208 -0.0657 -0.1502
   11CHTO   H14 4614   5.841   5.068  -1.121  0.3966  1.2465  0.8656
   11CHTO    C2 4615   5.765   5.272  -1.065 -0.3736  0.1169  0.0894
   11CHTO   H15 4616   5.673   5.330  -1.084 -1.1977 -0.7141  1.4923
   11CHTO    O6 4617   5.774   5.252  -0.926  0.0431  0.1028 -0.5390
   11CHTO    H1 4618   5.860   5.225  -0.901 -0.6432 -0.6257  1.1074
   11CHTO    C3 4619   5.896   5.356  -1.124  0.3876 -1.0194 -0.4820
   11CHTO   H16 4620   5.986   5.305  -1.087  0.1818 -1.9145 -1.2083
   11CHTO    N1 4621   5.904   5.495  -1.069  0.2188  0.4736 -0.0201
   11CHTO    H8 4622   5.806   5.540  -1.065 -0.9113 -1.8772 -0.7612
   11CHTO    H9 4623   5.966   5.555  -1.134 -0.6965 -0.2160 -1.5647
   11CHTO    C4 4624   5.907   5.360  -1.277 -0.7152  0.0290  0.0923
   11CHTO   H17 4625   5.828   5.422  -1.319 -0.4086 -0.0618 -0.6224
   11CHTO    O1 4626   5.892   5.226  -1.331 -0.3787  0.2502  0.4643
   11CHTO    C5 4627   5.768   5.155  -1.302 -0.1988  0.3159 -0.5089
   11CHTO   H18 4628   5.689   5.224  -1.333  0.7507  0.5708 -2.4236
   11CHTO   C16 4629   5.772   5.026  -1.387  0.1374 -0.1052 -0.1187
   11CHTO   O11 4630   5.893   4.946  -1.370  0.2560 -0.0946  0.2298
   11CHTO    H5 4631   5.872   4.867  -1.417 -1.4613  0.1908  0.5006
   11CHTO    O3 4632   6.032   5.421  -1.313 -0.1976  0.0311 -0.0527
   11CHTO    C6 4633   6.075   5.447  -1.454 -0.0882 -0.1213  0.1032
   11CHTO   H19 4634   6.022   5.387  -1.529  0.9931 -1.5399  0.4330
   11CHTO    C8 4635   6.055   5.593  -1.489 -0.4051  0.4143  0.1096
   11CHTO   H21 4636   6.118   5.657  -1.427  1.8347  1.8760 -3.4857
   11CHTO    O7 4637   5.912   5.628  -1.486  0.0788 -0.0897  0.0889
   11CHTO    H2 4638   5.862   5.549  -1.488 -0.8294  0.4401  0.9801
   11CHTO   C12 4639   6.120   5.631  -1.629  0.2756 -0.2188  0.2615
   11CHTO   H25 4640   6.067   5.568  -1.704  1.8872 -1.0473 -0.2039
   11CHTO    N3 4641   6.103   5.777  -1.670 -0.3051 -0.6271  0.1071
   11CHTO   H12 4642   6.135   5.855  -1.601 -2.5877 -0.2089  0.7298
   11CHTO   H13 4643   6.002   5.796  -1.702 -0.1236  0.3814  0.1016
   11CHTO   C15 4644   6.273   5.595  -1.622 -0.1919  0.4058 -0.1495
   11CHTO   H28 4645   6.321   5.658  -1.546 -1.5969  2.5791 -1.0268
   11CHTO   O10 4646   6.346   5.609  -1.764 -0.2228  0.0882 -0.4232
   11CHTO    H4 4647   6.285   5.570  -1.823  0.1465 -1.1791  0.0286
   11CHTO    O5 4648   6.291   5.449  -1.594  0.1750 -0.0681  0.1971
   11CHTO   C10 4649   6.226   5.410  -1.473  0.6842 -0.3530  0.2690
   11CHTO   H23 4650   6.285   5.460  -1.396  0.5683  0.3086 -0.0617
   11CHTO   C17 4651   6.247   5.261  -1.462 -0.0735  0.8178  0.3868
   11CHTO   O12 4652   6.377   5.239  -1.401  0.5682  0.1268  0.6141
   11CHTO    H6 4653   6.438   5.198  -1.459 -1.1159 -0.8614 -0.5135
   12CHTO  H203 4654   5.215  12.344   5.179  0.5570 -0.5010 -0.1120
   12CHTO   O82 4655   5.162  12.271   5.151  0.0927 -0.1914 -0.0486
   12CHTO  C123 4656   5.236  12.156   5.185 -0.0481 -0.8091 -0.1243
   12CHTO  H227 4657   5.174  12.065   5.189  0.8818 -1.3576  2.4231
   12CHTO   O77 4658   5.322  12.142   5.073 -0.4980 -0.0724  0.4428
   12CHTO  C118 4659   5.392  12.019   5.062  0.3820 -0.2762  0.2820
   12CHTO  H222 4660   5.320  11.936   5.055 -2.3882  2.0800  0.2348
   12CHTO  C125 4661   5.474  12.024   4.930  0.6647  0.0591 -0.2060
   12CHTO   O84 4662   5.561  12.138   4.929  0.4299 -0.0509  0.0782
   12CHTO  H205 4663   5.623  12.132   4.999 -0.2744 -0.8587  0.6540
   12CHTO  C114 4664   5.482  11.996   5.185  0.1935 -0.1718 -0.3500
   12CHTO  H218 4665   5.558  12.075   5.188  1.3551 -1.2996  1.4599
   12CHTO  C116 4666   5.407  12.036   5.321  0.0759  0.8764  0.3792
   12CHTO  H220 4667   5.340  11.952   5.349  1.4752 -0.7517 -1.0255
   12CHTO   O79 4668   5.505  12.044   5.426 -0.0293 -0.3035  0.6080
   12CHTO  H201 4669   5.558  12.120   5.416 -1.8312  1.0493  1.1663
   12CHTO  C120 4670   5.326  12.172   5.316  0.3398  0.5418 -0.2102
   12CHTO  H224 4671   5.400  12.254   5.313  1.5217 -0.4670  0.8804
   12CHTO   N21 4672   5.248  12.188   5.441  0.0498  1.1034 -0.3354
   12CHTO  H211 4673   5.161  12.246   5.418 -0.3059  0.4607 -0.6222
   12CHTO  H212 4674   5.314  12.229   5.516  0.2534  0.6827 -0.2815
   12CHTO   O75 4675   5.539  11.864   5.175  0.2086  0.6442  0.8050
   12CHTO  C112 4676   5.457  11.746   5.228  0.6671  0.1145  0.2077
   12CHTO  H216 4677   5.349  11.761   5.212  0.6226 -0.6174 -0.1847
   12CHTO   O73 4678   5.490  11.730   5.365 -0.4291  0.2429 -0.7899
   12CHTO  C113 4679   5.423  11.624   5.441  0.7928  0.0836 -0.2099
   12CHTO  H217 4680   5.314  11.636   5.431  0.8250 -0.3067 -1.0936
   12CHTO  C124 4681   5.463  11.629   5.590 -0.3839 -0.0413 -0.0541
   12CHTO   O83 4682   5.376  11.718   5.659 -0.5494  0.2550 -0.8572
   12CHTO  H204 4683   5.321  11.668   5.717 -1.0119 -0.1917 -1.6798
   12CHTO  C109 4684   5.459  11.487   5.375  0.1788 -0.3765 -0.3491
   12CHTO  H213 4685   5.567  11.470   5.386  0.2180 -1.2044 -1.8360
   12CHTO  C110 4686   5.416  11.497   5.222 -1.3488  0.2887  0.5776
   12CHTO  H214 4687   5.309  11.516   5.223 -1.3324  0.3680  1.0018
   12CHTO   O78 4688   5.439  11.371   5.156  0.2491  0.4877  0.4622
   12CHTO  H200 4689   5.527  11.363   5.125 -0.5224  0.7462 -1.8899
   12CHTO  C111 4690   5.488  11.617   5.148  0.0472  0.2559  0.9271
   12CHTO  H215 4691   5.597  11.604   5.150  0.2917  1.7537 -0.7232
   12CHTO   N19 4692   5.450  11.625   4.999  0.1286 -0.5243  1.6347
   12CHTO  H207 4693   5.365  11.561   4.982  0.4908 -0.9808  1.5219
   12CHTO  H208 4694   5.539  11.604   4.941 -1.1839  0.5990 -0.7981
   12CHTO   O74 4695   5.376  11.381   5.433  0.4658  0.5279  0.0763
   12CHTO  C115 4696   5.467  11.283   5.525  0.0014 -0.6243  0.7003
   12CHTO  H219 4697   5.547  11.340   5.573  0.1919  0.7736 -1.2111
   12CHTO   O76 4698   5.388  11.230   5.646  0.2197  0.3248 -0.0502
   12CHTO  C122 4699   5.285  11.128   5.631  0.0196  0.1214  0.4736
   12CHTO  H226 4700   5.196  11.190   5.622  1.7240  2.3169 -2.1413
   12CHTO  C126 4701   5.275  11.054   5.764 -0.5436 -0.2903  0.2432
   12CHTO   O85 4702   5.255  11.139   5.881  0.8902  0.0747 -0.0024
   12CHTO  H206 4703   5.170  11.179   5.880  1.4860  1.3727  0.8438
   12CHTO  C121 4704   5.306  11.037   5.507 -0.3968 -0.1235  0.3844
   12CHTO  H225 4705   5.277  10.931   5.523 -4.1933  0.7489 -0.1164
   12CHTO   O81 4706   5.216  11.072   5.397 -0.2704 -0.0681 -0.3193
   12CHTO  H202 4707   5.150  11.007   5.389  1.5639 -1.8854 -1.1800
   12CHTO  C119 4708   5.452  11.026   5.460  0.8161  0.0346 -0.7778
   12CHTO  H223 4709   5.503  10.988   5.548  0.6524 -0.7286 -1.0142
   12CHTO  C117 4710   5.512  11.164   5.429  0.0924 -0.2630  0.2589
   12CHTO  H221 4711   5.493  11.198   5.327  0.6328  1.4418  0.7084
   12CHTO   N20 4712   5.663  11.152   5.437 -0.2819  0.1378 -0.3973
   12CHTO  H209 4713   5.689  11.136   5.540 -0.3322  0.8418 -0.2765
   12CHTO  H210 4714   5.711  11.083   5.369 -0.7543 -0.4639 -0.1181
   12CHTO   O80 4715   5.487  10.910   5.345  0.5432  0.2301  0.5812
   12CHTO  C103 4716   5.446  10.752   5.373  0.4194  0.3302 -0.7075
   12CHTO  H190 4717   5.451  10.720   5.477  0.8380  0.6483 -0.6289
   12CHTO  C101 4718   5.321  10.699   5.313 -0.4701 -0.3108  0.2972
   12CHTO  H188 4719   5.302  10.742   5.215 -0.3904 -1.5962 -0.2923
   12CHTO   O68 4720   5.197  10.751   5.405 -0.3332  0.4861 -0.4687
   12CHTO  H168 4721   5.182  10.691   5.475  0.8044  0.3510 -0.3334
   12CHTO   C99 4722   5.316  10.534   5.296 -0.1051 -0.1089 -0.4978
   12CHTO  H186 4723   5.317  10.497   5.401 -0.3926  0.1706 -0.3981
   12CHTO   N17 4724   5.186  10.489   5.230  0.3704 -0.0702 -0.2015
   12CHTO  H174 4725   5.126  10.577   5.246 -0.8746 -0.8131 -0.7544
   12CHTO  H175 4726   5.199  10.473   5.123  1.3394  1.6508 -0.3626
   12CHTO   C97 4727   5.443  10.474   5.233 -0.6543  0.1840 -0.0454
   12CHTO  H184 4728   5.437  10.507   5.128 -0.6159 -1.2067 -0.4845
   12CHTO   O64 4729   5.562  10.530   5.302  0.1215  0.4626  0.0355
   12CHTO  C104 4730   5.570  10.673   5.295  0.7135  0.8727 -0.6420
   12CHTO  H191 4731   5.562  10.703   5.191  0.2841 -0.4879 -1.0059
   12CHTO  C108 4732   5.706  10.715   5.343 -0.4261  0.3644  0.5955
   12CHTO   O71 4733   5.742  10.851   5.317 -0.4539 -0.3084  0.2869
   12CHTO  H171 4734   5.832  10.857   5.291  0.0178 -1.3021  1.6447
   12CHTO   O62 4735   5.457  10.333   5.253 -0.5834  0.7401 -0.2550
   12CHTO   C91 4736   5.507  10.252   5.151  0.4120 -0.6463 -0.0087
   12CHTO  H178 4737   5.582  10.307   5.094  1.6798 -0.2589  1.9560
   12CHTO   C92 4738   5.400  10.207   5.052 -0.5061  0.2198 -0.5328
   12CHTO  H179 4739   5.308  10.181   5.106 -0.9629  0.3553 -1.2340
   12CHTO   O66 4740   5.368  10.321   4.984 -0.2117  0.0557  0.2183
   12CHTO  H166 4741   5.299  10.373   5.020 -0.9279 -0.2087 -0.7690
   12CHTO   C93 4742   5.444  10.098   4.950 -1.7872 -0.5477 -0.8211
   12CHTO  H180 4743   5.503  10.143   4.869  0.0235  0.4345  0.9909
   12CHTO   N16 4744   5.329  10.045   4.872 -0.1489  0.1253  0.0729
   12CHTO  H172 4745   5.298  10.119   4.800 -1.0176 -0.4367 -0.1254
   12CHTO  H173 4746   5.353   9.952   4.823  0.1555 -0.3115  1.0335
   12CHTO   C94 4747   5.534   9.983   5.022 -0.3961 -0.2216 -0.2551
   12CHTO  H181 4748   5.471   9.917   5.082  0.3777 -0.3135  0.4575
   12CHTO   O61 4749   5.642  10.043   5.099 -0.1181 -0.3123 -0.4187
   12CHTO   C95 4750   5.590  10.135   5.200 -0.6811  1.4836  0.0313
   12CHTO  H182 4751   5.527  10.077   5.268 -1.0360  1.3055 -0.4439
   12CHTO  C106 4752   5.719  10.180   5.275 -0.0973  0.3835  0.0350
   12CHTO   O69 4753   5.762  10.085   5.367 -0.2787 -0.3878 -0.1919
   12CHTO  H169 4754   5.813  10.015   5.332 -1.5694 -1.4651  0.0271
   12CHTO   O63 4755   5.586   9.890   4.886 -0.0939  0.3232  0.4938
   12CHTO   C96 4756   5.669   9.760   4.948  0.2821 -0.8608 -0.4616
   12CHTO  H183 4757   5.668   9.760   5.057 -2.9397  0.0036 -0.4293
   12CHTO   C98 4758   5.817   9.757   4.892  0.1976 -0.1067  0.0668
   12CHTO  H185 4759   5.817   9.758   4.782  0.7646 -0.5941  0.0619
   12CHTO   O67 4760   5.875   9.876   4.927  0.1235 -0.4235 -0.0331
   12CHTO  H167 4761   5.966   9.864   4.947  0.2318  0.3590 -0.0385
   12CHTO  C102 4762   5.892   9.625   4.934  1.1047 -0.0272  0.2696
   12CHTO  H189 4763   5.915   9.639   5.041 -0.9840  0.9126  0.6460
   12CHTO   N18 4764   6.019   9.616   4.860 -0.1082 -0.3757 -0.4311
   12CHTO  H176 4765   6.017   9.673   4.768 -0.6757  1.7212  0.8486
   12CHTO  H177 4766   6.052   9.513   4.850  0.0664 -0.4036  0.4046
   12CHTO  C105 4767   5.804   9.501   4.915 -0.0527 -0.2061 -0.2161
   12CHTO  H192 4768   5.848   9.420   4.856  1.1546 -0.7173  1.3339
   12CHTO   O65 4769   5.679   9.525   4.849  0.3844  0.3611 -0.0435
   12CHTO  C100 4770   5.590   9.632   4.893 -0.6751  0.6687  0.3738
   12CHTO  H187 4771   5.536   9.660   4.801  0.6400  2.4260  0.0942
   12CHTO  C107 4772   5.472   9.569   4.984 -0.3292 -0.2008  0.0916
   12CHTO   O70 4773   5.397   9.473   4.906  0.4384 -0.1565  0.3138
   12CHTO  H170 4774   5.381   9.499   4.818 -0.7117 -0.6263  0.3887
   12CHTO   O57 4775   5.794   9.453   5.060 -0.2396  0.6834  0.4022
   12CHTO   C85 4776   5.754   9.319   5.093  0.0828  0.5788 -0.0223
   12CHTO  H157 4777   5.685   9.281   5.016 -0.8436  0.6707  0.7572
   12CHTO   C83 4778   5.666   9.321   5.214  0.1011 -0.1153 -0.6535
   12CHTO  H155 4779   5.577   9.375   5.183 -0.9995 -1.8113 -0.5755
   12CHTO   O56 4780   5.729   9.393   5.320 -0.1717  0.6665  0.1214
   12CHTO  H135 4781   5.676   9.403   5.397  1.4699  0.9928  1.2132
   12CHTO   C81 4782   5.628   9.175   5.247  0.8726  0.3200 -0.5942
   12CHTO  H153 4783   5.592   9.125   5.157 -0.2785 -2.3775  1.2899
   12CHTO   N14 4784   5.510   9.173   5.338  0.0485 -0.2374 -0.2449
   12CHTO  H141 4785   5.528   9.221   5.432  0.1670 -3.4528  1.4575
   12CHTO  H142 4786   5.469   9.077   5.363  0.2014  0.6279  3.6801
   12CHTO   C79 4787   5.748   9.096   5.296 -0.7092 -0.1346  0.8917
   12CHTO  H151 4788   5.715   8.994   5.318  0.6752 -0.9223 -0.5923
   12CHTO   O52 4789   5.841   9.089   5.186 -0.1518  0.9202 -0.0884
   12CHTO   C86 4790   5.879   9.215   5.119 -0.2265  0.0633  0.2559
   12CHTO  H158 4791   5.952   9.261   5.190 -2.1376  1.3464  1.4702
   12CHTO   C90 4792   5.955   9.182   4.985 -0.7638  0.4810 -0.2103
   12CHTO   O60 4793   5.883   9.089   4.908  0.3769  0.5094  0.3183
   12CHTO  H138 4794   5.913   9.094   4.819 -1.6743  0.5772 -0.4011
   12CHTO   O50 4795   5.813   9.147   5.414 -0.4901  0.4660 -0.3722
   12CHTO   C73 4796   5.819   9.110   5.555  0.2053 -0.0756  0.7983
   12CHTO  H145 4797   5.727   9.050   5.564 -0.0001  0.1910  0.4989
   12CHTO   C74 4798   5.833   9.242   5.639 -0.4294 -0.2681 -0.0582
   12CHTO  H146 4799   5.748   9.299   5.598 -1.7846 -1.8480  0.4929
   12CHTO   O54 4800   5.815   9.213   5.776  0.3270  0.3379  0.3604
   12CHTO  H133 4801   5.793   9.293   5.819 -1.1123  0.6773 -0.9540
   12CHTO   C75 4802   5.973   9.319   5.620  0.8575  0.1158  1.4102
   12CHTO  H147 4803   5.977   9.341   5.512  2.1764 -4.9749  0.2881
   12CHTO   N13 4804   5.999   9.436   5.703 -0.0254  0.3021  0.0857
   12CHTO  H139 4805   5.918   9.449   5.774  0.4793 -0.1523  0.7524
   12CHTO  H140 4806   6.009   9.516   5.631  1.2968 -0.0284 -0.1160
   12CHTO   C76 4807   6.083   9.216   5.640  0.1385 -0.3410 -0.4787
   12CHTO  H148 4808   6.076   9.183   5.744 -2.2408 -0.4195 -0.6360
   12CHTO   O49 4809   6.058   9.107   5.549 -0.6523  0.0422  0.5714
   12CHTO   C77 4810   5.949   9.018   5.572  0.3371  0.4000 -0.5143
   12CHTO  H149 4811   5.961   8.990   5.677  2.0307 -1.7353 -1.2481
   12CHTO   C88 4812   5.957   8.894   5.486 -0.7146  0.3404 -0.5793
   12CHTO   O58 4813   6.076   8.829   5.518 -0.0426 -0.3671 -0.0609
   12CHTO  H136 4814   6.153   8.872   5.484 -0.8772  1.1069 -0.1488
   12CHTO   O51 4815   6.223   9.257   5.598 -0.3328 -0.1418  0.1718
   12CHTO   C78 4816   6.330   9.143   5.623 -0.4370  0.1820 -0.2743
   12CHTO  H150 4817   6.286   9.041   5.624  1.4559 -0.6532  0.0620
   12CHTO   C80 4818   6.417   9.164   5.753  0.2671 -0.1147  0.2835
   12CHTO  H152 4819   6.459   9.267   5.748  1.6169 -0.6981 -0.6681
   12CHTO   O55 4820   6.323   9.162   5.867 -0.7452  0.0521  0.2169
   12CHTO  H134 4821   6.280   9.244   5.879 -2.9191 -1.3271  2.2890
   12CHTO   C84 4822   6.535   9.060   5.766 -0.2321  0.4265 -0.0074
   12CHTO  H156 4823   6.505   8.957   5.783  2.4977 -0.8464 -2.4135
   12CHTO   N15 4824   6.618   9.086   5.888 -0.3915  0.2015  0.0366
   12CHTO  H143 4825   6.579   9.171   5.939 -2.0407 -0.1460 -0.6225
   12CHTO  H144 4826   6.718   9.108   5.857 -0.7032  0.6602 -0.6655
   12CHTO   C87 4827   6.620   9.053   5.634  0.4146  0.6568  0.2276
   12CHTO  H159 4828   6.675   9.146   5.625  1.8973 -0.3159 -1.0061
   12CHTO   O53 4829   6.511   9.028   5.504 -0.1051 -0.1943  0.1233
   12CHTO   C82 4830   6.419   9.136   5.493 -0.7235  0.0969 -0.9337
   12CHTO  H154 4831   6.484   9.224   5.494  1.9320 -1.7700 -1.7045
   12CHTO   C89 4832   6.339   9.130   5.358 -0.2283 -0.5815  0.3241
   12CHTO   O59 4833   6.421   9.160   5.247  0.4840 -0.0129 -0.6272
   12CHTO  H137 4834   6.458   9.076   5.225  1.1555 -0.9611  3.5731
   12CHTO   O45 4835   6.710   8.957   5.639 -0.3310 -0.0590  0.9889
   12CHTO   C67 4836   6.811   8.950   5.533 -0.1099 -0.2406 -0.1332
   12CHTO  H124 4837   6.814   9.038   5.470  0.1418  1.2766  1.9256
   12CHTO   C65 4838   6.953   8.927   5.593  0.0311 -0.1741  0.3888
   12CHTO  H122 4839   6.960   8.992   5.680  3.3443  1.4400 -0.9834
   12CHTO   O44 4840   7.056   8.966   5.500 -0.0573 -0.1248 -0.0361
   12CHTO  H102 4841   7.052   8.912   5.424  0.3963  1.0927 -0.9339
   12CHTO   C63 4842   6.964   8.777   5.652 -0.0849  0.0209 -0.1532
   12CHTO  H120 4843   6.877   8.754   5.713 -0.0324 -1.3099 -0.5582
   12CHTO   N11 4844   7.083   8.752   5.737  0.0652  0.5008  0.0067
   12CHTO  H108 4845   7.141   8.667   5.707  0.9543  1.1167 -0.0482
   12CHTO  H109 4846   7.148   8.837   5.730 -0.9458  1.2920  0.1191
   12CHTO   C61 4847   6.952   8.675   5.530 -0.2190 -0.1121 -0.2284
   12CHTO  H118 4848   6.936   8.575   5.571  0.8759  0.3166  1.2999
   12CHTO   O40 4849   6.840   8.698   5.448  0.4646  0.7669 -0.0223
   12CHTO   C68 4850   6.769   8.827   5.433  0.5142 -0.5648  0.6603
   12CHTO  H125 4851   6.662   8.801   5.446  0.4994 -1.8595 -1.7765
   12CHTO   C72 4852   6.783   8.870   5.290 -0.1570 -0.0062 -0.7247
   12CHTO   O48 4853   6.712   8.991   5.262 -0.3027 -0.1118  0.2525
   12CHTO  H105 4854   6.639   8.965   5.208  0.0632  1.0709 -0.8195
   12CHTO   O38 4855   7.060   8.676   5.435 -0.0044 -0.7512 -0.7001
   12CHTO   C55 4856   7.163   8.578   5.435  1.0572  0.0619 -0.2967
   12CHTO  H112 4857   7.170   8.531   5.534  0.1848  0.6964  0.0718
   12CHTO   C56 4858   7.293   8.650   5.391 -0.3397 -0.2416 -0.0045
   12CHTO  H113 4859   7.279   8.706   5.298 -0.2018  0.3128  0.3048
   12CHTO   O42 4860   7.331   8.756   5.488  0.2584 -0.3001  0.0691
   12CHTO  H100 4861   7.320   8.731   5.577  0.6008  1.7791  0.7004
   12CHTO   C57 4862   7.411   8.545   5.376  0.1568 -0.1989 -0.2436
   12CHTO  H114 4863   7.438   8.497   5.471  2.3083 -0.2262 -0.8313
   12CHTO   N10 4864   7.532   8.606   5.319  0.6270 -0.0183 -0.0322
   12CHTO  H106 4865   7.599   8.542   5.263  0.9770  0.4501 -0.1485
   12CHTO  H107 4866   7.588   8.645   5.403  4.7352 -4.1899 -0.6011
   12CHTO   C58 4867   7.360   8.439   5.278 -0.5054  0.0815 -0.0251
   12CHTO  H115 4868   7.331   8.483   5.180 -1.8297 -1.0253 -0.1344
   12CHTO   O37 4869   7.244   8.375   5.333  0.5100 -0.2091 -0.0810
   12CHTO   C59 4870   7.134   8.464   5.337  0.1597  0.1773 -0.5048
   12CHTO  H116 4871   7.123   8.505   5.236  1.2857  1.3485 -0.1668
   12CHTO   C70 4872   7.018   8.372   5.372 -0.3535  0.7056  0.6326
   12CHTO   O46 4873   6.895   8.435   5.322  0.8284 -0.1578  0.0940
   12CHTO  H103 4874   6.821   8.382   5.343 -1.8852  1.2344 -5.1228
   12CHTO   O39 4875   7.464   8.312   5.251 -0.2529  0.0700 -0.3193
   12CHTO   C60 4876   7.456   8.253   5.118  0.4574 -0.0424  0.1749
   12CHTO  H117 4877   7.368   8.279   5.059 -0.4717  3.0171  2.7526
   12CHTO   C62 4878   7.571   8.294   5.034 -0.4608 -0.8267 -0.3963
   12CHTO  H119 4879   7.561   8.402   5.013  2.4858 -0.7023 -1.3482
   12CHTO   O43 4880   7.699   8.272   5.104  0.1342  0.0572  0.6376
   12CHTO  H101 4881   7.771   8.321   5.069  0.1823 -0.4327  0.0443
   12CHTO   C66 4882   7.569   8.229   4.887 -0.0993  0.1741  0.7200
   12CHTO  H123 4883   7.473   8.241   4.838 -0.0740  0.6063  0.7679
   12CHTO   N12 4884   7.660   8.288   4.783 -0.1387  0.0152 -0.2758
   12CHTO  H110 4885   7.738   8.216   4.763  2.3410  2.8362 -1.0573
   12CHTO  H111 4886   7.692   8.391   4.786 -0.8023  0.2222 -0.0829
   12CHTO   C69 4887   7.587   8.072   4.905  0.0557 -0.1439 -0.2560
   12CHTO  H126 4888   7.680   8.053   4.963  1.1094  0.4947 -1.7270
   12CHTO   O41 4889   7.454   8.022   5.009 -0.4526  0.3288 -0.3666
   12CHTO   C64 4890   7.451   8.097   5.137 -0.4073  0.1089  0.5049
   12CHTO  H121 4891   7.543   8.066   5.191 -0.2746  1.2252  0.9389
   12CHTO   C71 4892   7.338   8.043   5.225 -0.6826 -0.1054  0.6976
   12CHTO   O47 4893   7.205   8.062   5.165 -0.4524 -0.0143 -0.3622
   12CHTO  H104 4894   7.136   8.056   5.228  0.1508  0.9347  0.4035
   12CHTO   O34 4895   7.599   7.985   4.779 -0.3443 -0.1437  0.1225
   12CHTO   C49 4896   7.671   7.852   4.738 -0.6947  0.3866  0.7608
   12CHTO   H91 4897   7.764   7.878   4.687 -2.1611  3.1922 -0.6188
   12CHTO   C47 4898   7.575   7.770   4.639 -0.0676 -0.1767 -0.0669
   12CHTO   H89 4899   7.631   7.684   4.597 -1.2480 -0.9076 -0.1958
   12CHTO   O33 4900   7.548   7.858   4.522  0.1952  0.6982  0.2930
   12CHTO   H70 4901   7.468   7.837   4.477 -0.4481  1.3244  1.1136
   12CHTO   C45 4902   7.438   7.718   4.707 -0.2747 -0.3929 -0.4741
   12CHTO   H87 4903   7.366   7.801   4.707 -0.1763 -0.3079 -0.2589
   12CHTO    N8 4904   7.377   7.603   4.630 -0.8228 -0.6086 -0.3095
   12CHTO   H75 4905   7.396   7.606   4.523 -3.1294  0.7409 -0.7082
   12CHTO   H76 4906   7.271   7.603   4.648 -0.7696 -2.0146  0.0453
   12CHTO   C43 4907   7.464   7.701   4.863  1.0166 -0.8398  0.4817
   12CHTO   H85 4908   7.451   7.803   4.898 -3.4844 -0.6516 -1.3996
   12CHTO   O29 4909   7.593   7.648   4.889  0.5668 -0.8149  0.0476
   12CHTO   C50 4910   7.691   7.757   4.857  0.1676  1.1171 -0.5071
   12CHTO   H92 4911   7.718   7.807   4.951 -0.8391 -1.9323  1.4825
   12CHTO   C54 4912   7.824   7.689   4.842 -0.2435 -0.4346 -0.8820
   12CHTO   O36 4913   7.815   7.585   4.750  0.2393 -0.3787  0.4555
   12CHTO   H72 4914   7.899   7.561   4.716 -0.6272 -0.2738 -1.8184
   12CHTO   O27 4915   7.359   7.626   4.926 -0.2138  0.2888  0.5035
   12CHTO   C37 4916   7.271   7.611   5.034  0.5660  0.3145 -1.3111
   12CHTO   H79 4917   7.252   7.506   5.061  0.2062  0.8551  0.6146
   12CHTO   C38 4918   7.337   7.660   5.163  0.4015  0.2499 -0.3530
   12CHTO   H80 4919   7.377   7.761   5.146  2.6666 -0.4288  0.8314
   12CHTO   O31 4920   7.454   7.581   5.189 -0.0530 -0.2123  0.4226
   12CHTO   H68 4921   7.469   7.554   5.277  0.2298  2.7489  1.3330
   12CHTO   C39 4922   7.224   7.646   5.279  0.3269  0.2790 -0.2098
   12CHTO   H81 4923   7.208   7.540   5.298  1.4023  0.7756  3.9176
   12CHTO    N7 4924   7.274   7.700   5.411 -0.3546 -0.4427 -0.9727
   12CHTO   H73 4925   7.292   7.805   5.399 -0.4291 -0.2407  0.5636
   12CHTO   H74 4926   7.365   7.657   5.449  0.7997  2.9906  0.3067
   12CHTO   C40 4927   7.078   7.706   5.247 -0.5539  0.2962  0.3561
   12CHTO   H82 4928   7.079   7.815   5.248 -1.5054  0.3102  0.1018
   12CHTO   O26 4929   7.045   7.654   5.125 -0.3049  0.3434  0.4424
   12CHTO   C41 4930   7.135   7.683   5.012 -0.5411  0.3798  0.8819
   12CHTO   H83 4931   7.159   7.791   5.008  2.6556 -0.3596 -0.9075
   12CHTO   C52 4932   7.061   7.641   4.882 -0.4038  0.1662  0.0077
   12CHTO   O35 4933   6.947   7.709   4.855 -0.3544  0.1753  0.0638
   12CHTO   H71 4934   6.882   7.659   4.902 -0.6889 -0.9064 -1.5387
   12CHTO   O28 4935   6.982   7.686   5.349  0.2244  0.1592 -0.0631
   12CHTO   C42 4936   6.853   7.763   5.346  0.4460  0.3384 -0.1981
   12CHTO   H84 4937   6.783   7.711   5.411 -0.7078 -0.0042 -1.6941
   12CHTO   C44 4938   6.786   7.766   5.202  0.4340  0.2401 -0.4516
   12CHTO   H86 4939   6.855   7.822   5.139  2.3843 -0.4592  0.9973
   12CHTO   O32 4940   6.781   7.625   5.166 -0.0517 -0.2002 -0.3231
   12CHTO   H69 4941   6.864   7.582   5.175  1.0867  1.8759 -0.7823
   12CHTO   C48 4942   6.645   7.843   5.207  0.0016 -0.0496  0.2236
   12CHTO   H90 4943   6.576   7.782   5.265  0.8009 -2.7938 -1.6224
   12CHTO    N9 4944   6.580   7.851   5.075 -0.2008  0.0441  0.3795
   12CHTO   H77 4945   6.543   7.755   5.040 -1.2513  0.2881  0.7831
   12CHTO   H78 4946   6.497   7.920   5.082 -2.5475 -2.3834 -2.1195
   12CHTO   C51 4947   6.663   7.989   5.273 -0.5475 -0.1245 -0.1965
   12CHTO   H93 4948   6.712   8.053   5.201 -1.3752  0.4501 -0.2524
   12CHTO   O30 4949   6.736   7.982   5.399 -0.4394 -0.1924 -0.2572
   12CHTO   C46 4950   6.863   7.905   5.401 -0.1286 -0.3395 -0.3886
   12CHTO   H88 4951   6.933   7.961   5.339 -1.8999  2.0659 -0.2604
   12CHTO   C53 4952   6.903   7.913   5.555 -0.8042 -0.5852  0.1678
   12CHTO   O72 4953   6.986   8.028   5.569 -0.1106 -0.2041 -0.1287
   12CHTO  H199 4954   7.068   8.001   5.605 -0.2501  0.0014  0.3399
   12CHTO   O22 4955   6.526   8.037   5.284 -0.8597  0.3374 -0.1691
   12CHTO   C31 4956   6.493   8.179   5.325 -0.7919  0.2454  0.3597
   12CHTO   H59 4957   6.388   8.178   5.360 -0.1482  3.3139  2.5438
   12CHTO   C29 4958   6.572   8.250   5.440 -0.8489 -0.1026 -0.3858
   12CHTO   H57 4959   6.678   8.264   5.414 -0.9618  1.5115  0.0180
   12CHTO   O21 4960   6.566   8.156   5.552  0.2438 -0.2783  0.6149
   12CHTO   H37 4961   6.631   8.089   5.556  0.7033  0.1599  0.5010
   12CHTO   C27 4962   6.506   8.382   5.483  0.2068 -0.0082  0.1799
   12CHTO   H55 4963   6.399   8.366   5.503 -0.3221  0.2053 -2.4061
   12CHTO    N5 4964   6.568   8.445   5.609  0.1492 -0.0845 -0.4475
   12CHTO   H43 4965   6.663   8.398   5.633  0.9893  0.7240 -2.1412
   12CHTO   H44 4966   6.586   8.551   5.603  0.4464  0.0456  1.9884
   12CHTO   C25 4967   6.498   8.474   5.358  0.1704  0.4752 -0.1116
   12CHTO   H53 4968   6.597   8.515   5.335  0.7118 -0.5297  0.3996
   12CHTO   O17 4969   6.441   8.406   5.249  0.0831 -0.1043  0.1547
   12CHTO   C32 4970   6.504   8.281   5.200  0.1596 -0.5836  0.2857
   12CHTO   H60 4971   6.609   8.292   5.173  0.1817  1.5073  1.0857
   12CHTO   C36 4972   6.422   8.228   5.082 -0.6100  0.4048  0.0771
   12CHTO   O25 4973   6.424   8.328   4.984 -0.4613  0.3665 -0.4920
   12CHTO   H40 4974   6.339   8.368   4.973 -1.5817 -1.3874  1.5621
   12CHTO   O15 4975   6.412   8.611   5.372  0.4602 -0.2015 -0.1393
   12CHTO   C19 4976   6.294   8.678   5.310  0.4957 -0.7369 -0.0606
   12CHTO   H47 4977   6.266   8.753   5.386  2.7763  1.1270 -1.0085
   12CHTO   C20 4978   6.326   8.750   5.179  0.4829 -0.2284 -0.8903
   12CHTO   H48 4979   6.380   8.685   5.108  0.2773 -0.5379 -0.7636
   12CHTO   O19 4980   6.422   8.851   5.210 -0.0678  0.6095 -0.0970
   12CHTO   H35 4981   6.499   8.809   5.242 -0.9115 -1.8575 -1.1757
   12CHTO   C21 4982   6.201   8.817   5.107 -0.2835  0.0260  0.0972
   12CHTO   H49 4983   6.171   8.904   5.166 -0.4903  0.6312 -0.8816
   12CHTO    N4 4984   6.244   8.857   4.964 -0.7525 -0.7069  0.5621
   12CHTO   H41 4985   6.161   8.854   4.894  0.1241  1.5073 -0.6301
   12CHTO   H42 4986   6.318   8.785   4.933 -0.9411 -0.7004  0.1036
   12CHTO   C22 4987   6.078   8.723   5.106  0.1955 -0.5877 -0.3317
   12CHTO   H50 4988   6.098   8.635   5.045  1.1331 -0.4267 -0.2640
   12CHTO   O14 4989   6.061   8.669   5.237 -0.3272  0.3679  0.2103
   12CHTO   C23 4990   6.169   8.588   5.286  0.0056  0.4201  0.1331
   12CHTO   H51 4991   6.187   8.505   5.215  0.4724 -0.1644  0.9312
   12CHTO   C34 4992   6.128   8.515   5.418 -0.1672 -0.4798  0.5550
   12CHTO   O23 4993   6.025   8.422   5.384 -0.3565  0.3969  0.4633
   12CHTO   H38 4994   6.020   8.345   5.437 -1.3217 -0.8505 -1.4284
   12CHTO   O16 4995   5.952   8.789   5.066 -0.5096  0.1451 -0.1794
   12CHTO   C24 4996   5.840   8.698   5.010  0.6712  0.2263  0.4429
   12CHTO   H52 4997   5.862   8.591   5.019  0.7543  0.1666 -0.4363
   12CHTO   C26 4998   5.827   8.729   4.861  0.0703  0.1829  0.4960
   12CHTO   H54 4999   5.794   8.835   4.851 -1.3829 -0.3902 -0.9672
   12CHTO   O20 5000   5.948   8.698   4.793 -0.4481  0.0381  0.9685
   12CHTO   H36 5001   5.952   8.607   4.770 -0.0530  0.6959 -1.7667
   12CHTO   C30 5002   5.706   8.650   4.808 -0.1396 -0.4712 -0.1997
   12CHTO   H58 5003   5.727   8.543   4.827 -2.1185 -0.8754 -0.0833
   12CHTO    N6 5004   5.684   8.669   4.666  0.3108 -0.2823 -0.4561
   12CHTO   H45 5005   5.660   8.769   4.630  2.9917  1.1111  1.4923
   12CHTO   H46 5006   5.612   8.597   4.630 -0.2534  1.2704 -2.5746
   12CHTO   C33 5007   5.572   8.679   4.882 -0.5130  0.4450 -0.2428
   12CHTO   H61 5008   5.534   8.782   4.870  1.4109  1.1499 -0.4363
   12CHTO   O18 5009   5.593   8.659   5.024  0.0470 -0.2157 -0.3212
   12CHTO   C28 5010   5.705   8.729   5.080 -0.3796  0.1560 -1.0314
   12CHTO   H56 5011   5.687   8.835   5.062  3.4654  1.1475  0.5008
   12CHTO   C35 5012   5.710   8.702   5.236 -0.2476 -0.1809 -0.2591
   12CHTO   O24 5013   5.599   8.748   5.312 -0.1011 -0.9975 -0.2551
   12CHTO   H39 5014   5.594   8.690   5.385  0.3734 -1.0393 -0.2570
   12CHTO    O9 5015   5.461   8.597   4.835  0.4370 -0.0710  0.1531
   12CHTO   C13 5016   5.468   8.444   4.868 -0.1261  0.0069  0.0329
   12CHTO   H26 5017   5.554   8.421   4.934 -0.2987 -0.0087  0.2555
   12CHTO   C11 5018   5.473   8.374   4.724 -0.2260 -0.3243  0.6259
   12CHTO   H24 5019   5.573   8.397   4.684  0.6958 -2.1773  1.7909
   12CHTO    O8 5020   5.381   8.440   4.632 -0.4308 -0.2290  0.3875
   12CHTO    H3 5021   5.399   8.533   4.637  0.5635 -0.4579  1.5293
   12CHTO    C9 5022   5.449   8.227   4.751  0.4553  0.0944 -0.1878
   12CHTO   H22 5023   5.531   8.200   4.819  1.0140  1.1676 -0.4294
   12CHTO    N2 5024   5.478   8.143   4.629  0.2434 -0.0374 -0.2521
   12CHTO   H10 5025   5.582   8.117   4.639 -0.1671 -2.2601 -1.4596
   12CHTO   H11 5026   5.414   8.056   4.635 -0.1215  0.2191 -0.4275
   12CHTO    C7 5027   5.316   8.199   4.833  0.4161  0.3149  0.5930
   12CHTO   H20 5028   5.344   8.118   4.904  0.1511 -0.8852 -0.6393
   12CHTO    O4 5029   5.263   8.301   4.912 -0.4699  0.2404 -0.0534
   12CHTO   C14 5030   5.347   8.408   4.963 -0.0237  0.1513  0.0681
   12CHTO   H27 5031   5.376   8.363   5.060  0.8786 -0.3219 -0.4118
   12CHTO   C18 5032   5.254   8.533   4.993  0.2396 -0.5340  0.0187
   12CHTO   O13 5033   5.318   8.633   5.066 -0.2213 -0.4413 -0.1197
   12CHTO    H7 5034   5.269   8.639   5.145  0.2756  3.2978 -0.0022
   12CHTO    O2 5035   5.190   8.138   4.725 -0.0178 -0.3370  0.0679
   12CHTO    C1 5036   5.126   8.018   4.782 -0.6888  0.4507 -0.5366
   12CHTO   H14 5037   5.156   8.000   4.888  1.4944  2.3945 -0.7812
   12CHTO    C2 5038   5.157   7.886   4.704 -0.0948  0.6813  0.1087
   12CHTO   H15 5039   5.109   7.899   4.606  0.3431  0.7798 -0.0939
   12CHTO    O6 5040   5.297   7.858   4.704 -0.5393 -0.0823  0.1179
   12CHTO    H1 5041   5.315   7.827   4.618  2.7498  0.4932  0.5291
   12CHTO    C3 5042   5.065   7.763   4.780  0.3952  0.1298  0.3621
   12CHTO   H16 5043   5.112   7.752   4.879  3.5929 -0.6199 -1.1893
   12CHTO    N1 5044   5.080   7.638   4.705  0.1883 -0.0262  0.9222
   12CHTO    H8 5045   5.123   7.562   4.770  0.4337  0.4900  1.3618
   12CHTO    H9 5046   4.990   7.610   4.652  0.7321  3.4528 -1.9665
   12CHTO    C4 5047   4.918   7.813   4.813 -0.2646  0.2680  0.0984
   12CHTO   H17 5048   4.861   7.818   4.721 -0.2572 -1.1746  0.0087
   12CHTO    O1 5049   4.917   7.945   4.874  0.1428  0.0795  0.1356
   12CHTO    C5 5050   4.970   8.044   4.786 -0.0212  0.0851 -0.6098
   12CHTO   H18 5051   4.936   8.036   4.683  2.0864  0.9209 -1.3933
   12CHTO   C16 5052   4.927   8.181   4.844  0.3251 -0.1617  0.0031
   12CHTO   O11 5053   4.971   8.211   4.975 -0.0108  0.0704 -0.4975
   12CHTO    H5 5054   4.930   8.292   4.998 -0.2175 -0.1788  0.0202
   12CHTO    O3 5055   4.864   7.733   4.926  0.3347  0.7384 -0.1855
   12CHTO    C6 5056   4.719   7.734   4.972 -0.1903  0.0865  0.8242
   12CHTO   H19 5057   4.667   7.820   4.930 -0.8120 -1.0728 -0.8314
   12CHTO    C8 5058   4.651   7.600   4.924  0.2703  0.2313  0.3363
   12CHTO   H21 5059   4.701   7.517   4.974  0.0229 -0.3107 -0.3061
   12CHTO    O7 5060   4.668   7.590   4.782 -0.0300  0.3615 -0.7287
   12CHTO    H2 5061   4.755   7.570   4.752  0.3153  1.8024 -0.7262
   12CHTO   C12 5062   4.497   7.599   4.967  0.1812 -0.3416 -0.3243
   12CHTO   H25 5063   4.439   7.679   4.917 -0.2934 -0.7302 -0.4028
   12CHTO    N3 5064   4.415   7.483   4.934 -0.4148  0.9103  0.5417
   12CHTO   H12 5065   4.401   7.461   4.829  0.6041 -0.0443  0.5983
   12CHTO   H13 5066   4.316   7.499   4.976 -0.3387  0.4841  0.8799
   12CHTO   C15 5067   4.501   7.624   5.122 -0.0105  0.1911  0.0839
   12CHTO   H28 5068   4.547   7.543   5.179 -0.5535  1.1406  1.9216
   12CHTO   O10 5069   4.355   7.674   5.189  0.1656 -0.4025  0.2890
   12CHTO    H4 5070   4.287   7.620   5.154  1.5958 -1.5791 -0.7461
   12CHTO    O5 5071   4.575   7.743   5.159 -0.0464  0.8578  0.6618
   12CHTO   C10 5072   4.710   7.746   5.121 -0.8422 -0.0321  0.1607
   12CHTO   H23 5073   4.758   7.659   5.166 -1.4256 -0.4262  0.0306
   12CHTO   C17 5074   4.765   7.876   5.181  0.7983 -0.1303  0.5683
   12CHTO   O12 5075   4.710   7.993   5.120  0.1447  0.1323  0.0838
   12CHTO    H6 5076   4.713   7.985   5.026  0.2973 -0.0996  0.1089
   13CHTO  H203 5077   7.481   4.303   1.850  0.0533  1.3140  0.2360
   13CHTO   O82 5078   7.414   4.335   1.907 -0.4401 -0.1490  0.4955
   13CHTO  C123 5079   7.418   4.477   1.893 -0.1102 -0.2552  0.1837
   13CHTO  H227 5080   7.502   4.504   1.827  0.5763  1.2132  1.6333
   13CHTO   O77 5081   7.292   4.499   1.825  0.4742 -0.6661  0.1290
   13CHTO  C118 5082   7.262   4.633   1.774  0.7783  0.5439  0.4827
   13CHTO  H222 5083   7.349   4.655   1.710  0.2254 -0.3327 -0.5877
   13CHTO  C125 5084   7.124   4.626   1.685 -0.6213  0.1271 -0.6678
   13CHTO   O84 5085   7.012   4.593   1.770  0.6029  0.1654 -0.6940
   13CHTO  H205 5086   6.944   4.545   1.727  1.8184 -2.0686 -0.1628
   13CHTO  C114 5087   7.252   4.716   1.900 -0.0060 -0.1939 -0.4555
   13CHTO  H218 5088   7.177   4.674   1.966 -0.8415  3.5205  1.0872
   13CHTO  C116 5089   7.392   4.710   1.980  0.7258 -0.0189 -0.0004
   13CHTO  H220 5090   7.471   4.761   1.919 -0.5151  0.6359 -1.1007
   13CHTO   O79 5091   7.390   4.799   2.094  0.6067 -0.3671  0.4203
   13CHTO  H201 5092   7.379   4.889   2.070  0.2364 -0.6908 -0.6400
   13CHTO  C120 5093   7.422   4.559   2.022  0.2419  0.3897  0.8239
   13CHTO  H224 5094   7.339   4.535   2.091 -0.7113 -1.4143 -0.9209
   13CHTO   N21 5095   7.557   4.542   2.081  0.1849  0.0147  0.0596
   13CHTO  H211 5096   7.543   4.550   2.188 -0.2048  1.0843 -0.0686
   13CHTO  H212 5097   7.620   4.625   2.052 -0.5674  0.7963  0.6383
   13CHTO   O75 5098   7.218   4.852   1.858 -0.5865 -0.4239 -0.2141
   13CHTO  C112 5099   7.117   4.937   1.970 -0.0221  0.2239  0.2334
   13CHTO  H216 5100   7.172   4.940   2.065  0.3738 -0.5403  0.0307
   13CHTO   O73 5101   6.993   4.869   1.979 -0.5104 -0.3770  0.7133
   13CHTO  C113 5102   6.887   4.913   2.061 -0.4127 -0.4342  0.3548
   13CHTO  H217 5103   6.923   4.897   2.165  3.5185 -2.6708 -1.2579
   13CHTO  C124 5104   6.765   4.827   2.032 -0.7594 -0.6868 -0.2194
   13CHTO   O83 5105   6.802   4.691   2.028 -0.1914 -0.0739 -0.6502
   13CHTO  H204 5106   6.855   4.678   1.952  0.4064  3.2392 -0.8674
   13CHTO  C109 5107   6.856   5.058   2.030  0.4629  0.1261 -0.0104
   13CHTO  H213 5108   6.814   5.061   1.929  1.4666 -0.6935 -0.4543
   13CHTO  C110 5109   6.990   5.141   2.034 -0.5587  0.6147 -0.1524
   13CHTO  H214 5110   7.035   5.129   2.132  0.5707  1.0031 -0.6195
   13CHTO   O78 5111   6.950   5.280   2.012  0.0258 -0.7851 -0.1917
   13CHTO  H200 5112   6.881   5.305   2.070 -2.2241 -0.5617 -2.8872
   13CHTO  C111 5113   7.079   5.084   1.926  0.8985 -1.4073 -0.5182
   13CHTO  H215 5114   7.026   5.094   1.830  0.3187 -0.1144 -0.0676
   13CHTO   N19 5115   7.204   5.169   1.916 -0.5281  0.2879  0.0330
   13CHTO  H207 5116   7.275   5.120   1.852  0.4022  0.8897  0.5976
   13CHTO  H208 5117   7.187   5.269   1.880 -0.8176  0.3974  0.4668
   13CHTO   O74 5118   6.748   5.102   2.128 -0.0511  0.0461  0.5127
   13CHTO  C115 5119   6.602   5.110   2.057 -0.0494 -0.0116  0.4237
   13CHTO  H219 5120   6.604   5.068   1.956  0.1143 -0.2042  0.5058
   13CHTO   O76 5121   6.504   5.026   2.126  0.2887 -0.3674 -0.2963
   13CHTO  C122 5122   6.482   5.058   2.263  0.1671 -0.5327 -0.5103
   13CHTO  H226 5123   6.575   5.040   2.316  0.1080 -1.7571 -0.7991
   13CHTO  C126 5124   6.387   4.949   2.311 -0.6380  0.0904  0.9883
   13CHTO   O85 5125   6.249   4.971   2.270 -0.1272 -0.7742  0.0487
   13CHTO  H206 5126   6.241   4.952   2.178 -0.0304 -0.2152 -0.0810
   13CHTO  C121 5127   6.420   5.205   2.277 -0.0413  0.4104  0.4097
   13CHTO  H225 5128   6.318   5.202   2.320 -0.2014  0.5976  0.0452
   13CHTO   O81 5129   6.494   5.273   2.379 -0.3211 -0.1209 -0.4476
   13CHTO  H202 5130   6.542   5.344   2.341  0.5113 -1.0853 -1.2474
   13CHTO  C119 5131   6.411   5.276   2.137 -0.4297 -0.9278  0.4526
   13CHTO  H223 5132   6.338   5.225   2.074  0.8159  0.9405 -2.6600
   13CHTO  C117 5133   6.548   5.266   2.062  0.4606  0.7970  0.6104
   13CHTO  H221 5134   6.628   5.325   2.108 -0.3855  1.4808  1.2297
   13CHTO   N20 5135   6.550   5.317   1.922  0.3447 -0.9418 -0.3570
   13CHTO  H209 5136   6.463   5.301   1.860 -1.0636 -0.2998  1.4205
   13CHTO  H210 5137   6.582   5.420   1.920  0.5939 -1.0294 -0.8898
   13CHTO   O80 5138   6.348   5.424   2.147  0.2565  0.0834 -0.1995
   13CHTO  C103 5139   6.187   5.448   2.096 -1.0819  0.0721  0.3498
   13CHTO  H190 5140   6.172   5.553   2.069  0.1438  0.3924  0.8688
   13CHTO  C101 5141   6.125   5.372   1.971 -0.1622 -0.3424  0.1565
   13CHTO  H188 5142   6.131   5.264   1.981 -0.2587 -0.2939  0.7840
   13CHTO   O68 5143   6.199   5.418   1.863  0.1500 -0.1589 -0.2142
   13CHTO  H168 5144   6.266   5.355   1.846  1.3120  0.2347  2.5530
   13CHTO   C99 5145   5.967   5.413   1.959 -0.3011  0.2586 -0.4199
   13CHTO  H186 5146   5.952   5.522   1.943 -0.4627  0.3306  0.2071
   13CHTO   N17 5147   5.902   5.345   1.846  0.0091  0.4021 -0.1577
   13CHTO  H174 5148   5.925   5.239   1.847  0.5186  0.5132  1.1369
   13CHTO  H175 5149   5.937   5.396   1.758 -0.1799 -0.3949 -0.7076
   13CHTO   C97 5150   5.897   5.384   2.096  0.3374 -0.0498  0.3934
   13CHTO  H184 5151   5.896   5.275   2.111  3.4614 -0.0592  0.8007
   13CHTO   O64 5152   5.967   5.450   2.197 -0.1632 -0.5633  0.1279
   13CHTO  C104 5153   6.107   5.411   2.225 -0.3018 -0.0222 -0.5756
   13CHTO  H191 5154   6.130   5.307   2.249  0.5374 -0.0212 -1.3959
   13CHTO  C108 5155   6.157   5.494   2.343 -0.3060  0.3113 -0.1227
   13CHTO   O71 5156   6.086   5.491   2.468 -0.0533  0.4885 -0.0577
   13CHTO  H171 5157   5.998   5.519   2.454 -0.1210  0.6556  0.6733
   13CHTO   O62 5158   5.766   5.448   2.111  0.7551 -0.3535  0.1610
   13CHTO   C91 5159   5.662   5.367   2.161  0.0364  0.1189 -0.0331
   13CHTO  H178 5160   5.710   5.281   2.208  2.3109  0.3946 -1.7822
   13CHTO   C92 5161   5.569   5.315   2.040  0.3602 -0.3190  0.3486
   13CHTO  H179 5162   5.566   5.400   1.971 -2.4241 -1.0481 -0.4735
   13CHTO   O66 5163   5.647   5.224   1.961 -0.4516  0.1490 -0.1607
   13CHTO  H166 5164   5.717   5.271   1.919  0.6657 -2.2565 -1.0562
   13CHTO   C93 5165   5.426   5.257   2.074  0.9250 -0.3767 -0.0822
   13CHTO  H180 5166   5.437   5.148   2.071 -3.3467 -0.9469  1.1846
   13CHTO   N16 5167   5.320   5.282   1.972 -0.4016  0.6837  0.3024
   13CHTO  H172 5168   5.258   5.193   1.964  0.9776 -0.3758  1.1765
   13CHTO  H173 5169   5.368   5.295   1.876 -0.7420 -0.4606 -0.0388
   13CHTO   C94 5170   5.372   5.302   2.214 -1.0037 -0.2417  0.0506
   13CHTO  H181 5171   5.314   5.394   2.204  1.5457  1.0244 -4.0217
   13CHTO   O61 5172   5.473   5.334   2.302  0.1084 -0.1350 -0.1730
   13CHTO   C95 5173   5.566   5.437   2.262 -0.0259  0.1295 -0.6978
   13CHTO  H182 5174   5.509   5.517   2.216  0.0929 -0.3056 -1.6037
   13CHTO  C106 5175   5.637   5.494   2.389  0.1537  0.1774 -0.1061
   13CHTO   O69 5176   5.710   5.618   2.362 -0.2211  0.1424  0.2179
   13CHTO  H169 5177   5.674   5.667   2.291  1.6901  0.4986 -0.5175
   13CHTO   O63 5178   5.301   5.187   2.295  0.1694  0.1823 -0.1907
   13CHTO   C96 5179   5.186   5.256   2.395 -0.5398 -0.2429  0.3491
   13CHTO  H183 5180   5.126   5.325   2.336 -0.4382 -0.0587  0.4643
   13CHTO   C98 5181   5.226   5.334   2.525 -0.0185  0.2048 -0.0445
   13CHTO  H185 5182   5.309   5.404   2.503 -1.4351  1.3619 -1.8478
   13CHTO   O67 5183   5.122   5.419   2.571 -0.3404  0.0031 -0.5969
   13CHTO  H167 5184   5.124   5.505   2.534  2.5597  0.5436  0.6421
   13CHTO  C102 5185   5.274   5.237   2.646 -0.0707 -0.1942  0.1238
   13CHTO  H189 5186   5.247   5.294   2.735 -0.8825  1.5517 -1.2006
   13CHTO   N18 5187   5.419   5.217   2.654 -0.8678 -0.5548  0.4888
   13CHTO  H176 5188   5.470   5.312   2.660  0.2285 -1.1732  1.0573
   13CHTO  H177 5189   5.439   5.149   2.735 -0.4909  0.1105  0.9591
   13CHTO  C105 5190   5.192   5.103   2.642  0.2285  0.1385  0.1592
   13CHTO  H192 5191   5.250   5.020   2.600  0.6546  0.2648  0.4905
   13CHTO   O65 5192   5.072   5.119   2.570 -0.3386 -0.0643 -0.5535
   13CHTO  C100 5193   5.093   5.126   2.428 -0.4707  0.5330  0.3973
   13CHTO  H187 5194   5.138   5.034   2.388 -0.8794  0.8836 -0.8929
   13CHTO  C107 5195   4.961   5.131   2.353  0.3679  0.0533  0.0857
   13CHTO   O70 5196   4.861   5.043   2.398 -0.6034 -0.1831  0.4196
   13CHTO  H170 5197   4.781   5.070   2.357 -0.0498 -0.0571 -0.6177
   13CHTO   O57 5198   5.153   5.075   2.787  0.1905 -0.6443  0.0352
   13CHTO   C85 5199   5.092   4.950   2.829  0.4968  0.7434 -1.2553
   13CHTO  H157 5200   5.127   4.879   2.751  0.1588 -2.1682  1.1417
   13CHTO   C83 5201   4.941   4.952   2.816  0.4741 -0.3485  0.3429
   13CHTO  H155 5202   4.911   4.965   2.713 -1.5053 -2.2575  0.6548
   13CHTO   O56 5203   4.886   5.070   2.883 -0.3192  0.2191 -0.2892
   13CHTO  H135 5204   4.795   5.075   2.861 -0.3877  1.2159  0.1911
   13CHTO   C81 5205   4.884   4.815   2.862 -0.5566 -0.3289 -0.4903
   13CHTO  H153 5206   4.915   4.738   2.791 -0.5164 -0.8843  0.1251
   13CHTO   N14 5207   4.735   4.798   2.834 -0.7460  0.3433  0.6547
   13CHTO  H141 5208   4.681   4.838   2.916  1.1347  1.9717  1.1464
   13CHTO  H142 5209   4.732   4.691   2.835 -0.0418  0.2957 -0.7449
   13CHTO   C79 5210   4.928   4.772   3.008  0.6618  0.5277 -0.3094
   13CHTO  H151 5211   4.900   4.667   3.019 -2.5095  1.1719 -1.7709
   13CHTO   O52 5212   5.074   4.776   3.016 -0.2074 -0.2504  0.2975
   13CHTO   C86 5213   5.136   4.900   2.970  0.2678  0.3597 -0.3715
   13CHTO  H158 5214   5.106   4.974   3.047  1.1869 -1.6833  2.0376
   13CHTO   C90 5215   5.290   4.882   2.998 -0.3373  0.1610  0.2771
   13CHTO   O60 5216   5.366   4.997   2.957 -0.1103  0.1828  0.0183
   13CHTO  H138 5217   5.394   4.971   2.871  1.0131 -1.8602  0.9553
   13CHTO   O50 5218   4.871   4.855   3.103 -0.3041  0.0479 -0.4024
   13CHTO   C73 5219   4.756   4.833   3.183  0.6000  0.8476  0.7287
   13CHTO  H145 5220   4.685   4.768   3.130 -0.5475  1.5821  1.3357
   13CHTO   C74 5221   4.678   4.970   3.197 -0.4840 -0.0337  0.4340
   13CHTO  H146 5222   4.659   5.015   3.098  1.5180  1.1396  0.5573
   13CHTO   O54 5223   4.553   4.946   3.265  0.4514 -0.3422  0.1261
   13CHTO  H133 5224   4.486   5.010   3.250 -0.1147 -0.5904  1.5567
   13CHTO   C75 5225   4.775   5.065   3.278  0.5247  0.4542 -0.1180
   13CHTO  H147 5226   4.873   5.066   3.226 -0.4184  0.0319 -1.9437
   13CHTO   N13 5227   4.733   5.205   3.287 -0.5582 -0.1266  0.0789
   13CHTO  H139 5228   4.812   5.275   3.307 -1.4918  0.9597  0.0183
   13CHTO  H140 5229   4.654   5.224   3.358 -0.4716  2.6644 -0.5362
   13CHTO   C76 5230   4.803   4.997   3.421  0.3589 -0.5952  0.3630
   13CHTO  H148 5231   4.712   4.997   3.481 -0.5803  1.4458 -0.9975
   13CHTO   O49 5232   4.844   4.859   3.417 -0.3215 -0.5939  0.5924
   13CHTO   C77 5233   4.772   4.773   3.318 -0.2815 -0.0945 -0.2302
   13CHTO  H149 5234   4.671   4.765   3.358  0.1257  1.3756  1.1898
   13CHTO   C88 5235   4.849   4.645   3.344  0.6665 -0.3429 -0.0958
   13CHTO   O58 5236   5.006   4.633   3.306  0.3676  0.7432  0.4759
   13CHTO  H136 5237   5.054   4.685   3.368  0.9103  1.2029 -0.3199
   13CHTO   O51 5238   4.936   5.062   3.491 -0.9699 -0.1864 -0.0938
   13CHTO   C78 5239   4.933   5.061   3.619  0.5599 -0.3867  0.2496
   13CHTO  H150 5240   4.885   4.969   3.659  1.4915 -0.3652  1.4580
   13CHTO   C80 5241   4.869   5.188   3.677 -0.0894 -0.3907  0.3968
   13CHTO  H152 5242   4.888   5.276   3.612 -0.9484  1.4708  2.5963
   13CHTO   O55 5243   4.726   5.172   3.670  0.5973 -0.7843 -0.0453
   13CHTO  H134 5244   4.694   5.190   3.584 -1.1487  1.0722  0.9581
   13CHTO   C84 5245   4.909   5.217   3.832  0.3527 -0.4921  0.3950
   13CHTO  H156 5246   4.862   5.140   3.893  0.9575 -0.6150  0.7017
   13CHTO   N15 5247   4.861   5.348   3.872  0.5113 -0.2753  0.3549
   13CHTO  H143 5248   4.844   5.365   3.976 -0.5664 -4.1862  0.8720
   13CHTO  H144 5249   4.928   5.423   3.836  1.6231 -1.3415  0.1785
   13CHTO   C87 5250   5.065   5.207   3.843  0.5439 -0.0482 -0.3059
   13CHTO  H159 5251   5.100   5.277   3.767  1.2880 -0.5879 -0.4641
   13CHTO   O53 5252   5.097   5.073   3.805  0.2493 -0.1091 -0.4095
   13CHTO   C82 5253   5.078   5.049   3.669 -0.2338  0.5319 -0.4976
   13CHTO  H154 5254   5.137   5.114   3.605  0.5586  1.3511  1.0352
   13CHTO   C89 5255   5.132   4.904   3.650  0.3779  0.5478  0.4430
   13CHTO   O59 5256   5.153   4.864   3.516 -0.3700  0.1618 -0.3720
   13CHTO  H137 5257   5.192   4.779   3.514  2.4607  1.3812  0.3287
   13CHTO   O45 5258   5.127   5.237   3.998 -0.5927 -0.6373 -0.2024
   13CHTO   C67 5259   5.267   5.257   3.992 -0.6356 -0.6319  0.4906
   13CHTO  H124 5260   5.301   5.201   3.904 -0.8420 -0.4749  0.3126
   13CHTO   C65 5261   5.299   5.410   3.969 -0.1923 -0.2539 -0.6688
   13CHTO  H122 5262   5.214   5.457   4.020  0.8623  1.7902 -0.7375
   13CHTO   O44 5263   5.284   5.449   3.828 -0.6264 -0.3147 -0.2589
   13CHTO  H102 5264   5.328   5.527   3.799  0.2277 -0.3204  1.0059
   13CHTO   C63 5265   5.428   5.451   4.036 -0.3403 -0.0463 -0.6515
   13CHTO  H120 5266   5.406   5.463   4.142  1.2667 -0.0328 -0.3067
   13CHTO   N11 5267   5.480   5.587   3.999 -0.0672  0.1183 -0.3080
   13CHTO  H108 5268   5.576   5.607   4.042 -0.5343  1.7994  0.0116
   13CHTO  H109 5269   5.423   5.665   4.045  1.1766  2.6806 -2.9450
   13CHTO   C61 5270   5.535   5.332   4.029  0.1740 -0.4623 -0.4578
   13CHTO  H118 5271   5.627   5.367   4.077  0.4295 -0.1262 -1.1897
   13CHTO   O40 5272   5.489   5.211   4.103  0.2547  0.4581  0.0182
   13CHTO   C68 5273   5.343   5.194   4.117  0.5263  0.2045 -0.5073
   13CHTO  H125 5274   5.314   5.250   4.208  0.9909  0.8887 -0.7726
   13CHTO   C72 5275   5.314   5.048   4.138  0.5009  0.3004  0.1513
   13CHTO   O48 5276   5.359   4.953   4.039  0.5013  0.6878  0.1421
   13CHTO  H105 5277   5.348   4.869   4.079 -2.2990 -0.1336 -2.1605
   13CHTO   O38 5278   5.568   5.296   3.891 -0.5543  0.1076  0.1898
   13CHTO   C55 5279   5.699   5.249   3.840 -0.4227  0.0845 -0.0465
   13CHTO  H112 5280   5.680   5.237   3.733 -5.2807  0.3127  0.6912
   13CHTO   C56 5281   5.755   5.121   3.901  0.3690  0.5227 -0.8467
   13CHTO  H113 5282   5.766   5.162   4.002 -3.7262  0.0215 -0.1329
   13CHTO   O42 5283   5.657   5.010   3.905 -0.0316 -0.5146  0.1740
   13CHTO  H100 5284   5.610   5.021   3.985  0.1242  1.3918  0.0444
   13CHTO   C57 5285   5.896   5.079   3.833  0.3095  0.5640 -0.7967
   13CHTO  H114 5286   5.876   5.047   3.731  0.3990  1.0240 -0.9617
   13CHTO   N10 5287   5.962   4.974   3.911 -0.0693 -0.4901 -0.2912
   13CHTO  H106 5288   5.946   4.992   4.016  0.6008 -2.6393  0.2033
   13CHTO  H107 5289   6.068   4.979   3.895  0.0304  1.3379  0.8105
   13CHTO   C58 5290   5.993   5.203   3.820  0.1350  0.7822  0.1537
   13CHTO  H115 5291   6.023   5.229   3.923  2.7348 -1.0730 -0.0682
   13CHTO   O37 5292   5.929   5.327   3.783 -0.3720  0.2926 -0.3202
   13CHTO   C59 5293   5.805   5.367   3.847 -0.4784 -0.7709  0.2374
   13CHTO  H116 5294   5.818   5.409   3.946  1.9059  0.9749 -0.7693
   13CHTO   C70 5295   5.768   5.492   3.771 -0.5146  0.5643 -0.2005
   13CHTO   O46 5296   5.854   5.601   3.791 -0.3521 -0.2778  0.4902
   13CHTO  H103 5297   5.936   5.574   3.828 -0.2667  1.2131  1.4219
   13CHTO   O39 5298   6.126   5.166   3.728 -0.4957  0.0332  0.0150
   13CHTO   C60 5299   6.235   5.257   3.741  0.2653 -0.3410 -0.6725
   13CHTO  H117 5300   6.207   5.339   3.807 -0.5644 -0.9797 -0.2254
   13CHTO   C62 5301   6.363   5.193   3.804 -0.4325  0.4932  0.3280
   13CHTO  H119 5302   6.340   5.153   3.905  0.2211  0.0205  0.2948
   13CHTO   O43 5303   6.393   5.077   3.718 -0.3535  0.1865 -0.2854
   13CHTO  H101 5304   6.484   5.052   3.719  0.7121  3.8207  0.9649
   13CHTO   C66 5305   6.487   5.290   3.816  0.4276 -0.2718 -0.4960
   13CHTO  H123 5306   6.463   5.375   3.880  0.4299 -0.3681 -0.3658
   13CHTO   N12 5307   6.606   5.227   3.883  0.1530  0.4970  0.2151
   13CHTO  H110 5308   6.668   5.309   3.917  1.3154 -0.2217 -0.1709
   13CHTO  H111 5309   6.577   5.162   3.965  1.4009  0.4241  0.6028
   13CHTO   C69 5310   6.516   5.338   3.670 -0.1800 -0.2863  0.2975
   13CHTO  H126 5311   6.542   5.252   3.605 -0.0497 -0.7407  0.9411
   13CHTO   O41 5312   6.411   5.411   3.616  0.1495 -0.6344  0.5803
   13CHTO   C64 5313   6.272   5.320   3.602  0.1957  0.6824  0.0705
   13CHTO  H121 5314   6.300   5.242   3.528 -0.6793 -0.5109  0.9793
   13CHTO   C71 5315   6.157   5.402   3.548  0.3659 -0.0677  0.7148
   13CHTO   O47 5316   6.123   5.519   3.633 -0.2054 -0.2565  0.7968
   13CHTO  H104 5317   6.200   5.571   3.636 -1.1533  1.1477  1.3277
   13CHTO   O34 5318   6.614   5.429   3.671 -0.1237  0.3688 -0.9190
   13CHTO   C49 5319   6.719   5.501   3.575 -0.0987  0.1744  0.3573
   13CHTO   H91 5320   6.755   5.430   3.500  1.5775  1.4921 -0.1216
   13CHTO   C47 5321   6.840   5.555   3.659 -0.5018 -0.6370 -0.3327
   13CHTO   H89 5322   6.913   5.592   3.584 -0.6987 -1.1678 -0.7940
   13CHTO   O33 5323   6.903   5.436   3.712 -0.6286  0.7478 -0.0830
   13CHTO   H70 5324   6.892   5.428   3.804 -2.9929 -1.7630 -0.5084
   13CHTO   C45 5325   6.804   5.670   3.764 -0.3198  0.2217  0.1637
   13CHTO   H87 5326   6.776   5.619   3.857 -0.0072  0.7062  0.5238
   13CHTO    N8 5327   6.920   5.758   3.792  0.4878  0.3335 -0.6395
   13CHTO   H75 5328   6.993   5.729   3.866 -1.0905  1.2180  1.3122
   13CHTO   H76 5329   6.897   5.863   3.776 -0.5807 -0.0147 -1.4372
   13CHTO   C43 5330   6.666   5.738   3.716  0.3380  0.0112 -0.0657
   13CHTO   H85 5331   6.583   5.678   3.752 -0.2821  0.4249 -0.7791
   13CHTO   O29 5332   6.665   5.751   3.576  0.6591  0.8007  0.3771
   13CHTO   C50 5333   6.660   5.628   3.499  0.1802 -0.5554 -0.4717
   13CHTO   H92 5334   6.562   5.614   3.451 -0.3907 -2.0981  1.0914
   13CHTO   C54 5335   6.745   5.655   3.373  0.6415 -0.0666 -0.6418
   13CHTO   O36 5336   6.684   5.755   3.293 -0.0843  0.2238 -0.1981
   13CHTO   H72 5337   6.731   5.836   3.300 -1.0220  0.7452  0.2154
   13CHTO   O27 5338   6.652   5.867   3.771  0.2557 -0.4551  0.1572
   13CHTO   C37 5339   6.557   5.922   3.869  0.3494  1.0298 -0.0520
   13CHTO   H79 5340   6.467   5.860   3.856  1.0529 -0.0458  0.1450
   13CHTO   C38 5341   6.595   5.914   4.017  0.3423 -0.2768 -0.3574
   13CHTO   H80 5342   6.694   5.961   4.029 -0.0157  1.4134 -3.4700
   13CHTO   O31 5343   6.629   5.772   4.043  0.4701  0.0431 -0.1216
   13CHTO   H68 5344   6.551   5.720   4.044  0.5567 -0.0956 -0.9409
   13CHTO   C39 5345   6.485   5.976   4.109  0.5878  0.5916 -0.4423
   13CHTO   H81 5346   6.405   5.905   4.088  0.4797  1.4451 -3.1957
   13CHTO    N7 5347   6.524   5.986   4.255  0.0665 -0.5152  0.3325
   13CHTO   H73 5348   6.622   5.950   4.286  0.1346 -0.5463  0.0892
   13CHTO   H74 5349   6.443   5.960   4.321  0.7496  0.4974  1.5783
   13CHTO   C40 5350   6.434   6.116   4.054  0.0995  1.6288 -1.1688
   13CHTO   H82 5351   6.507   6.195   4.071  2.1469 -0.0555 -1.9280
   13CHTO   O26 5352   6.406   6.103   3.913  0.0689  0.0524  0.0300
   13CHTO   C41 5353   6.519   6.062   3.832  0.7876 -0.2635  0.0646
   13CHTO   H83 5354   6.601   6.134   3.838 -0.1292  0.7739  0.2727
   13CHTO   C52 5355   6.468   6.066   3.687  0.2145 -0.0030  0.6766
   13CHTO   O35 5356   6.546   6.046   3.573 -0.1040 -0.6545  0.0536
   13CHTO   H71 5357   6.616   6.107   3.566  0.5490 -1.3155  0.7188
   13CHTO   O28 5358   6.308   6.150   4.105  0.0567  0.1652  0.2983
   13CHTO   C42 5359   6.263   6.297   4.106 -0.3741  0.4753 -0.2397
   13CHTO   H84 5360   6.318   6.346   4.026 -0.2391  1.6213  0.5509
   13CHTO   C44 5361   6.289   6.378   4.232 -0.3190  0.8502  0.2638
   13CHTO   H86 5362   6.255   6.322   4.319 -0.0774 -1.0854 -0.8613
   13CHTO   O32 5363   6.431   6.370   4.264 -0.2760 -0.7542 -0.4971
   13CHTO   H69 5364   6.463   6.284   4.286  0.9304  0.0229  0.8672
   13CHTO   C48 5365   6.226   6.523   4.233  0.3678 -0.1148 -0.5338
   13CHTO   H90 5366   6.288   6.578   4.162 -1.1019  1.6201 -0.5071
   13CHTO    N9 5367   6.237   6.596   4.366 -0.2323 -0.3534 -0.2383
   13CHTO   H77 5368   6.146   6.617   4.421  0.6492 -1.6186  1.7601
   13CHTO   H78 5369   6.294   6.687   4.355 -0.8977  0.2091  0.8717
   13CHTO   C51 5370   6.078   6.511   4.184  0.1073  0.2834  0.0705
   13CHTO   H93 5371   6.033   6.458   4.268  0.5668 -0.1287  0.0567
   13CHTO   O30 5372   6.065   6.437   4.060  0.2389  0.1691 -0.2778
   13CHTO   C46 5373   6.106   6.302   4.069 -0.0912  0.7252  0.7163
   13CHTO   H88 5374   6.050   6.270   4.157  0.6321 -0.5891  0.7024
   13CHTO   C53 5375   6.069   6.231   3.940  0.2640 -0.3820  0.1815
   13CHTO   O72 5376   5.938   6.171   3.947 -0.1148  0.4164  0.1821
   13CHTO  H199 5377   5.873   6.239   3.935  1.1537  1.3592 -1.5210
   13CHTO   O22 5378   6.018   6.643   4.162 -0.2430  0.3505 -0.4301
   13CHTO   C31 5379   5.895   6.696   4.226 -0.6526  0.2231 -0.7563
   13CHTO   H59 5380   5.895   6.653   4.328 -1.5488 -2.8126 -1.9726
   13CHTO   C29 5381   5.904   6.849   4.241  0.5104 -0.0020  1.0178
   13CHTO   H57 5382   5.899   6.895   4.142 -0.7411  0.5798  1.3436
   13CHTO   O21 5383   6.038   6.889   4.290 -0.0242  0.1044 -0.2818
   13CHTO   H37 5384   6.106   6.844   4.244  0.9295  0.1248  1.0902
   13CHTO   C27 5385   5.790   6.906   4.324  0.3476 -0.6866  0.3031
   13CHTO   H55 5386   5.806   6.872   4.428  0.7269 -0.7691  0.2174
   13CHTO    N5 5387   5.789   7.057   4.325  0.0195  0.1018  0.4173
   13CHTO   H43 5388   5.755   7.094   4.230 -1.5863  0.0855  0.9738
   13CHTO   H44 5389   5.734   7.096   4.409  0.5166  2.9728 -0.5257
   13CHTO   C25 5390   5.654   6.869   4.256 -0.8132  0.2134 -0.0592
   13CHTO   H53 5391   5.655   6.907   4.153 -0.4906 -0.0222 -0.1432
   13CHTO   O17 5392   5.651   6.724   4.236  0.7623 -0.1203  0.2586
   13CHTO   C32 5393   5.761   6.663   4.163 -0.8486  0.8460 -0.1863
   13CHTO   H60 5394   5.762   6.691   4.057 -1.2891  0.7711 -0.2123
   13CHTO   C36 5395   5.728   6.509   4.163 -0.0169 -0.1514 -0.0055
   13CHTO   O25 5396   5.620   6.476   4.076 -0.3219  0.0469 -0.3983
   13CHTO   H40 5397   5.548   6.429   4.113  0.3650 -2.1192 -1.6958
   13CHTO   O15 5398   5.521   6.918   4.317 -0.1487 -0.2046 -0.1339
   13CHTO   C19 5399   5.437   6.889   4.439  0.3458 -0.4982  0.1553
   13CHTO   H47 5400   5.505   6.864   4.522  0.3947 -1.2229 -0.1078
   13CHTO   C20 5401   5.358   7.016   4.477 -0.7723 -0.6056  0.1067
   13CHTO   H48 5402   5.316   7.066   4.389  1.2345 -1.2857 -1.3021
   13CHTO   O19 5403   5.466   7.105   4.514  0.5189 -0.5277  0.1701
   13CHTO   H35 5404   5.494   7.092   4.602 -1.0613 -0.4622  0.6908
   13CHTO   C21 5405   5.246   7.000   4.577 -0.0457 -1.1896 -0.7157
   13CHTO   H49 5406   5.292   6.971   4.671  0.6152  0.2242 -0.5943
   13CHTO    N4 5407   5.171   7.126   4.596  0.4516 -0.3128 -0.6090
   13CHTO   H41 5408   5.176   7.172   4.499  1.6132  0.0698 -0.3722
   13CHTO   H42 5409   5.068   7.099   4.619  0.9381 -1.0141  0.8532
   13CHTO   C22 5410   5.157   6.878   4.530  0.4253 -0.1802  0.1181
   13CHTO   H50 5411   5.115   6.894   4.431  0.1892  0.3836  0.3036
   13CHTO   O14 5412   5.239   6.754   4.520  0.2150 -0.2360  0.7874
   13CHTO   C23 5413   5.341   6.761   4.422 -1.2386 -0.0145 -0.3066
   13CHTO   H51 5414   5.297   6.754   4.321 -2.3623  0.2259  0.1543
   13CHTO   C34 5415   5.426   6.635   4.434 -0.2357  0.0833  0.4218
   13CHTO   O23 5416   5.356   6.514   4.453 -0.2902  0.2152 -0.0222
   13CHTO   H38 5417   5.375   6.447   4.390 -2.0374 -1.7580  1.4471
   13CHTO   O16 5418   5.048   6.847   4.618  0.7010 -0.4260  0.0949
   13CHTO   C24 5419   4.916   6.747   4.559 -0.3574 -0.2670 -0.0559
   13CHTO   H52 5420   4.943   6.696   4.466  1.5485  0.7349 -0.0663
   13CHTO   C26 5421   4.796   6.838   4.540 -0.0737  0.9345 -0.0760
   13CHTO   H54 5422   4.780   6.902   4.630  0.5125  4.4171 -2.3581
   13CHTO   O20 5423   4.825   6.933   4.435 -0.3432 -0.5978 -0.2837
   13CHTO   H36 5424   4.836   6.882   4.357  0.5269 -0.8478 -0.0127
   13CHTO   C30 5425   4.672   6.755   4.510  0.0676 -1.3201  0.5855
   13CHTO   H58 5426   4.678   6.704   4.413  1.7251  0.4199 -0.2540
   13CHTO    N6 5427   4.550   6.846   4.513 -0.3093  0.3883 -0.3165
   13CHTO   H45 5428   4.470   6.776   4.492 -0.5288  0.7444 -0.6676
   13CHTO   H46 5429   4.559   6.917   4.433  2.1130 -0.7736 -1.1230
   13CHTO   C33 5430   4.655   6.632   4.608  0.3187  0.0623 -0.2706
   13CHTO   H61 5431   4.625   6.669   4.707  0.4264 -0.8048  0.0944
   13CHTO   O18 5432   4.773   6.557   4.621 -0.3609 -0.0246  0.1406
   13CHTO   C28 5433   4.886   6.639   4.666  0.2385 -0.5647 -0.7865
   13CHTO   H56 5434   4.872   6.690   4.761  1.5451  0.9726 -1.3886
   13CHTO   C35 5435   5.008   6.540   4.687 -0.2684  0.5823  0.1098
   13CHTO   O24 5436   4.982   6.430   4.777  0.0769 -0.3558  0.9901
   13CHTO   H39 5437   5.017   6.465   4.856  2.0452 -0.9190  0.3793
   13CHTO    O9 5438   4.546   6.552   4.561  0.5343  0.0336 -0.2184
   13CHTO   C13 5439   4.425   6.495   4.680 -0.3109 -0.0608  0.0356
   13CHTO   H26 5440   4.372   6.582   4.723 -1.0236 -0.2756 -0.3966
   13CHTO   C11 5441   4.492   6.399   4.792  0.9396  0.3039  0.6994
   13CHTO   H24 5442   4.548   6.462   4.863 -0.0495  1.0919  0.7799
   13CHTO    O8 5443   4.592   6.306   4.733  0.0612 -0.0380  0.0078
   13CHTO    H3 5444   4.645   6.271   4.802 -1.7752 -2.1619  0.3936
   13CHTO    C9 5445   4.373   6.332   4.872 -0.6779 -0.1808 -0.2841
   13CHTO   H22 5446   4.305   6.414   4.900 -3.7373 -3.0388  1.0143
   13CHTO    N2 5447   4.415   6.262   4.993  0.2037  0.1259 -0.3711
   13CHTO   H10 5448   4.485   6.183   4.970 -0.7790 -0.2242 -2.2139
   13CHTO   H11 5449   4.432   6.332   5.074 -0.6506 -1.3071  1.0642
   13CHTO    C7 5450   4.293   6.240   4.767 -0.2909 -0.4009 -0.4963
   13CHTO   H20 5451   4.190   6.261   4.803 -0.0188 -0.8852  0.5905
   13CHTO    O4 5452   4.318   6.276   4.633  0.3755 -0.3196 -0.1038
   13CHTO   C14 5453   4.306   6.417   4.612 -0.7376  0.3228  0.8025
   13CHTO   H27 5454   4.213   6.454   4.660  0.2702 -1.5253  4.3390
   13CHTO   C18 5455   4.288   6.427   4.463  0.1280  0.8094  0.1650
   13CHTO   O13 5456   4.268   6.564   4.431 -0.3162 -0.0701  0.1326
   13CHTO    H7 5457   4.316   6.599   4.359 -0.2877  0.7612  0.5521
   13CHTO    O2 5458   4.318   6.066   4.790 -0.0402  0.2354 -0.0521
   13CHTO    C1 5459   4.195   5.994   4.794 -0.3849  0.3803  0.4293
   13CHTO   H14 5460   4.113   6.054   4.749 -1.2861  0.1736  1.7612
   13CHTO    C2 5461   4.152   5.954   4.944  0.4325 -0.5000 -0.3205
   13CHTO   H15 5462   4.238   5.911   4.995  0.5496 -0.1356 -0.2069
   13CHTO    O6 5463   4.115   6.075   5.005 -0.0478 -0.8101  0.0799
   13CHTO    H1 5464   4.073   6.068   5.089 -0.7025  1.1191 -0.0573
   13CHTO    C3 5465   4.029   5.842   4.945  0.7957 -0.1025  0.0108
   13CHTO   H16 5466   3.945   5.896   4.898  0.7039 -0.3933 -0.1589
   13CHTO    N1 5467   3.988   5.808   5.092 -0.0030 -0.9106 -0.3025
   13CHTO    H8 5468   4.008   5.704   5.112  2.1307 -0.2363  1.1254
   13CHTO    H9 5469   3.883   5.830   5.108  0.0775 -2.2507  2.2606
   13CHTO    C4 5470   4.062   5.731   4.847  0.0192 -0.1662  0.1056
   13CHTO   H17 5471   4.141   5.665   4.884  0.7117 -0.9727 -2.6398
   13CHTO    O1 5472   4.097   5.781   4.720 -0.1967 -0.3457  0.0222
   13CHTO    C5 5473   4.219   5.862   4.714 -0.8064 -0.2351 -0.5195
   13CHTO   H18 5474   4.304   5.809   4.758 -1.1739 -1.3982 -1.1676
   13CHTO   C16 5475   4.258   5.892   4.568 -0.0725 -0.4075  0.1189
   13CHTO   O11 5476   4.255   5.783   4.477 -1.0469  0.0243 -0.5235
   13CHTO    H5 5477   4.169   5.745   4.478 -0.4667 -1.3952 -2.2711
   13CHTO    O3 5478   3.950   5.641   4.817 -0.0200 -0.5658 -1.0604
   13CHTO    C6 5479   3.986   5.506   4.771 -0.2780  0.1287  0.4931
   13CHTO   H19 5480   4.086   5.498   4.730 -0.5043 -0.1682 -0.0124
   13CHTO    C8 5481   3.982   5.394   4.878  0.3127  0.1523  0.7955
   13CHTO   H21 5482   3.887   5.389   4.932 -1.4457 -0.8287 -2.2456
   13CHTO    O7 5483   4.090   5.426   4.963  0.2633  0.1092  0.0132
   13CHTO    H2 5484   4.054   5.423   5.049 -0.4448 -1.0327 -0.3131
   13CHTO   C12 5485   3.999   5.246   4.817  0.1905 -0.4305 -0.5781
   13CHTO   H25 5486   4.098   5.236   4.768 -1.1049 -3.3347 -2.7779
   13CHTO    N3 5487   3.991   5.133   4.915  0.4287 -0.1467 -0.3827
   13CHTO   H12 5488   3.957   5.170   5.011  0.4033  0.2888 -0.5550
   13CHTO   H13 5489   3.935   5.049   4.876 -0.5501 -1.0706  2.8708
   13CHTO   C15 5490   3.897   5.227   4.697 -0.9005 -0.3320 -0.0568
   13CHTO   H28 5491   3.796   5.231   4.736 -0.1279  1.5270  1.8874
   13CHTO   O10 5492   3.912   5.097   4.605  0.5604 -0.1127  0.1195
   13CHTO    H4 5493   3.985   5.102   4.547 -0.4181 -1.6503 -1.2773
   13CHTO    O5 5494   3.911   5.337   4.599  0.0152 -0.6790  0.0164
   13CHTO   C10 5495   3.880   5.468   4.655  0.9449 -0.3001  0.3353
   13CHTO   H23 5496   3.780   5.460   4.698  0.3750  0.9500 -0.7402
   13CHTO   C17 5497   3.871   5.581   4.549  0.4111  0.1344 -0.0553
   13CHTO   O12 5498   3.761   5.563   4.454 -0.2734  0.0927  0.3894
   13CHTO    H6 5499   3.748   5.638   4.399 -0.5144 -1.1167 -1.2448
   14CHTO  H203 5500   5.519   5.191   3.632 -0.0429  0.0481  0.2900
   14CHTO   O82 5501   5.466   5.118   3.656  0.4697 -0.2171  0.6254
   14CHTO  C123 5502   5.520   4.991   3.605  0.8368 -0.1716 -1.0103
   14CHTO  H227 5503   5.629   4.994   3.619  0.8582 -1.2802 -0.8749
   14CHTO   O77 5504   5.469   4.892   3.696  0.1339  0.1021 -0.1298
   14CHTO  C118 5505   5.519   4.758   3.684 -0.6067  0.4015  0.8181
   14CHTO  H222 5506   5.629   4.756   3.676 -0.7522  1.6202 -1.8523
   14CHTO  C125 5507   5.480   4.674   3.804 -0.0323 -0.2396  0.5159
   14CHTO   O84 5508   5.567   4.566   3.827  0.2124 -0.1447  0.2609
   14CHTO  H205 5509   5.644   4.593   3.872  0.1914  2.8999 -1.4521
   14CHTO  C114 5510   5.476   4.699   3.546 -0.8194  0.1036  0.1786
   14CHTO  H218 5511   5.369   4.678   3.554 -0.6255 -0.1998  2.0719
   14CHTO  C116 5512   5.506   4.800   3.428  0.1981 -0.2605  0.2626
   14CHTO  H220 5513   5.615   4.807   3.409  0.0930  1.8490  0.3804
   14CHTO   O79 5514   5.431   4.770   3.308  0.3337 -0.3922 -0.4266
   14CHTO  H201 5515   5.365   4.704   3.314  2.2160 -2.4343 -1.5762
   14CHTO  C120 5516   5.457   4.947   3.463 -0.3159 -0.4672  0.1153
   14CHTO  H224 5517   5.347   4.947   3.472 -0.3347 -1.7372  0.0146
   14CHTO   N21 5518   5.481   5.055   3.365  0.1863  0.7782  0.8729
   14CHTO  H211 5519   5.403   5.129   3.377  0.6678  0.9157  3.5801
   14CHTO  H212 5520   5.576   5.098   3.395 -0.2333  2.6035 -0.3568
   14CHTO   O75 5521   5.550   4.574   3.545  0.2450  0.6877 -0.2315
   14CHTO  C112 5522   5.481   4.439   3.470 -0.3149 -0.0344 -0.2503
   14CHTO  H216 5523   5.567   4.372   3.459  0.0681  0.5525 -0.8371
   14CHTO   O73 5524   5.429   4.486   3.344 -0.0934 -0.1486  0.4683
   14CHTO  C113 5525   5.367   4.390   3.256  0.4026 -0.0096 -0.3947
   14CHTO  H217 5526   5.441   4.311   3.230 -0.8650 -1.7972  1.2716
   14CHTO  C124 5527   5.314   4.458   3.127  0.1025 -0.5892 -0.1777
   14CHTO   O83 5528   5.236   4.576   3.159 -0.4441 -0.0207 -0.1450
   14CHTO  H204 5529   5.161   4.545   3.205 -0.0632 -0.3820  0.2424
   14CHTO  C109 5530   5.256   4.312   3.326 -0.6249 -0.6234 -0.7010
   14CHTO  H213 5531   5.172   4.382   3.337  1.4956  1.9654 -0.4143
   14CHTO  C110 5532   5.298   4.272   3.474  0.4984  0.4611  0.8005
   14CHTO  H214 5533   5.368   4.189   3.465  0.3212  0.3475  0.4713
   14CHTO   O78 5534   5.182   4.229   3.555 -0.8586  1.0359 -0.0803
   14CHTO  H200 5535   5.159   4.142   3.530  0.6503  0.5338  0.2834
   14CHTO  C111 5536   5.367   4.383   3.555  0.0264  0.1937 -0.3578
   14CHTO  H215 5537   5.297   4.465   3.574  1.1223  1.2951 -1.0245
   14CHTO   N19 5538   5.417   4.335   3.686 -0.8981 -0.0233  0.1448
   14CHTO  H207 5539   5.464   4.411   3.746 -0.9658  0.6518 -0.6519
   14CHTO  H208 5540   5.327   4.315   3.743 -1.7483  1.2290 -0.7403
   14CHTO   O74 5541   5.223   4.198   3.246  0.5722 -0.5821  0.0990
   14CHTO  C115 5542   5.107   4.206   3.135 -0.1489 -0.2754  0.0768
   14CHTO  H219 5543   5.083   4.310   3.113  2.9031  0.4543 -0.0538
   14CHTO   O76 5544   5.155   4.144   3.000  0.1059 -0.3396  1.0872
   14CHTO  C122 5545   5.058   4.172   2.895  0.7734  0.0555 -0.0375
   14CHTO  H226 5546   5.100   4.114   2.813  3.3078  0.8906  0.6080
   14CHTO  C126 5547   5.064   4.330   2.842  0.9969  0.0382  0.8833
   14CHTO   O85 5548   4.946   4.359   2.766 -0.7264  0.3116 -0.0372
   14CHTO  H206 5549   4.963   4.426   2.703 -0.4988  0.6521  0.3766
   14CHTO  C121 5550   4.917   4.112   2.926  0.9582  0.5401 -0.0971
   14CHTO  H225 5551   4.841   4.135   2.848  2.6254 -0.5519 -2.0853
   14CHTO   O81 5552   4.922   3.969   2.921 -0.2981 -0.1372 -0.3467
   14CHTO  H202 5553   4.958   3.940   3.002  1.6334  2.8848 -0.0876
   14CHTO  C119 5554   4.863   4.170   3.060  0.0915  0.6293 -0.1180
   14CHTO  H223 5555   4.876   4.278   3.049  1.4699  0.4611 -0.3219
   14CHTO  C117 5556   4.973   4.137   3.173 -0.1521 -0.1048 -0.0058
   14CHTO  H221 5557   4.996   4.033   3.195 -2.7806 -0.7920 -0.3485
   14CHTO   N20 5558   4.918   4.185   3.298 -0.2951 -0.2897 -0.8307
   14CHTO  H209 5559   4.885   4.286   3.279  0.8251  0.0852 -0.7722
   14CHTO  H210 5560   4.839   4.118   3.329 -0.0282 -0.9581 -1.5688
   14CHTO   O80 5561   4.704   4.153   3.084 -0.3832  0.7507  0.1804
   14CHTO  C103 5562   4.604   4.232   2.985  0.0593  0.0174  0.6797
   14CHTO  H190 5563   4.663   4.295   2.917 -1.0332 -0.7413 -1.0039
   14CHTO  C101 5564   4.511   4.152   2.888 -0.5756  0.3948  0.0392
   14CHTO  H188 5565   4.461   4.073   2.945 -1.5411  1.7056  1.0378
   14CHTO   O68 5566   4.611   4.086   2.774 -0.6859 -0.3376 -1.4342
   14CHTO  H168 5567   4.660   4.154   2.731  1.1830 -0.5407  0.2769
   14CHTO   C99 5568   4.401   4.240   2.817 -0.2389 -0.6234 -0.4932
   14CHTO  H186 5569   4.443   4.305   2.738  0.1388  1.0001  0.9922
   14CHTO   N17 5570   4.300   4.163   2.746 -0.2756 -0.1446 -0.2967
   14CHTO  H174 5571   4.203   4.203   2.717 -0.2260 -0.3795 -0.7799
   14CHTO  H175 5572   4.290   4.060   2.777  2.1711 -0.2443  0.2003
   14CHTO   C97 5573   4.331   4.339   2.923 -0.6251  0.8453 -0.0071
   14CHTO  H184 5574   4.282   4.271   2.994 -3.1277 -2.0212 -4.2838
   14CHTO   O64 5575   4.437   4.409   2.984 -0.4584  0.1452  0.2105
   14CHTO  C104 5576   4.524   4.338   3.078 -0.6618  0.1532  0.2635
   14CHTO  H191 5577   4.462   4.287   3.152 -2.7228 -1.1420 -2.2629
   14CHTO  C108 5578   4.613   4.436   3.152  0.3062  0.8283  0.7171
   14CHTO   O71 5579   4.532   4.542   3.215 -0.0906  0.3551 -0.2068
   14CHTO  H171 5580   4.581   4.622   3.212  1.0129 -0.1128  3.1625
   14CHTO   O62 5581   4.243   4.433   2.863  0.6162  0.2938 -0.3126
   14CHTO   C91 5582   4.141   4.496   2.941 -0.3778  0.3384  0.5073
   14CHTO  H178 5583   4.093   4.421   3.005  1.3335  0.2497  1.7323
   14CHTO   C92 5584   4.034   4.553   2.836  0.5342  0.3216 -0.3865
   14CHTO  H179 5585   3.991   4.476   2.771  0.1010  1.6303 -1.7046
   14CHTO   O66 5586   3.923   4.616   2.904 -0.3194  0.2830 -0.4181
   14CHTO  H166 5587   3.860   4.547   2.915  1.6344 -1.5024 -0.1940
   14CHTO   C93 5588   4.090   4.664   2.748  0.9608  0.7222  0.3407
   14CHTO  H180 5589   4.009   4.733   2.721  0.3623  1.4757  3.8586
   14CHTO   N16 5590   4.154   4.601   2.626 -0.8658 -0.0397 -0.3749
   14CHTO  H172 5591   4.102   4.645   2.542  0.2224 -0.4640 -1.2939
   14CHTO  H173 5592   4.153   4.493   2.620 -1.7571 -0.1209  1.0777
   14CHTO   C94 5593   4.187   4.752   2.833  1.0475  0.2799 -0.5385
   14CHTO  H181 5594   4.292   4.724   2.822  1.8911  2.6087  1.2328
   14CHTO   O61 5595   4.163   4.734   2.976  0.3256 -0.1564  0.1877
   14CHTO   C95 5596   4.199   4.605   3.030 -0.2655 -0.0552 -0.1617
   14CHTO  H182 5597   4.308   4.600   3.037  0.1254  2.4381 -3.1774
   14CHTO  C106 5598   4.142   4.615   3.176  0.0261  0.7697 -0.4606
   14CHTO   O69 5599   4.233   4.685   3.264  0.2980 -0.3227  0.4763
   14CHTO  H169 5600   4.194   4.766   3.290  1.0031 -0.1861  1.1149
   14CHTO   O63 5601   4.169   4.904   2.800 -0.0104  0.6447  0.1076
   14CHTO   C96 5602   4.276   4.993   2.741 -0.2809 -0.6453 -0.1367
   14CHTO  H183 5603   4.244   5.094   2.765  1.9376 -0.1379  0.7109
   14CHTO   C98 5604   4.290   4.969   2.586  0.4207 -0.5488 -0.0163
   14CHTO  H185 5605   4.303   4.861   2.564 -1.0397 -0.5568 -0.9496
   14CHTO   O67 5606   4.165   4.997   2.509  0.8842  0.1374 -0.6722
   14CHTO  H167 5607   4.097   4.943   2.543  0.2587  0.1209 -1.9220
   14CHTO  C102 5608   4.413   5.047   2.515  0.2781  0.4475  1.0731
   14CHTO  H189 5609   4.381   5.152   2.507  0.4650  0.4079 -0.2456
   14CHTO   N18 5610   4.456   5.002   2.378 -0.1309 -0.3021 -0.2687
   14CHTO  H176 5611   4.417   4.902   2.368  1.0282 -0.9394  1.3034
   14CHTO  H177 5612   4.407   5.059   2.301 -1.4903 -2.6791 -1.2140
   14CHTO  C105 5613   4.538   5.040   2.606  0.0670 -0.3355  0.2757
   14CHTO  H192 5614   4.591   4.945   2.594  0.9412  0.3882 -1.7202
   14CHTO   O65 5615   4.517   5.053   2.743  0.0410 -0.7341 -0.2306
   14CHTO  C100 5616   4.416   4.980   2.812 -0.7984  0.0750 -0.5530
   14CHTO  H187 5617   4.442   4.873   2.809 -2.1983 -0.2295 -2.2984
   14CHTO  C107 5618   4.414   5.028   2.960  0.2454  0.2311  0.2673
   14CHTO   O70 5619   4.299   4.979   3.029 -0.7292  0.0935  0.0493
   14CHTO  H170 5620   4.299   4.999   3.120 -0.2254  0.8974 -0.1237
   14CHTO   O57 5621   4.646   5.172   2.553 -0.3676 -0.1551 -0.2103
   14CHTO   C85 5622   4.604   5.306   2.582  0.3119 -0.8635  0.1317
   14CHTO  H157 5623   4.513   5.293   2.645  1.5880 -3.1859  1.5449
   14CHTO   C83 5624   4.571   5.380   2.448 -0.2644 -0.3493  0.4744
   14CHTO  H155 5625   4.495   5.318   2.401 -0.5632  0.7701 -0.5531
   14CHTO   O56 5626   4.685   5.384   2.357 -0.4192 -0.1217  0.1096
   14CHTO  H135 5627   4.767   5.403   2.399 -0.6061 -0.6369  0.7169
   14CHTO   C81 5628   4.506   5.510   2.488  0.3890  0.7439 -0.1658
   14CHTO  H153 5629   4.419   5.483   2.548  1.4417 -2.0050  0.2143
   14CHTO   N14 5630   4.444   5.585   2.372  0.3399 -0.1233  0.5902
   14CHTO  H141 5631   4.343   5.558   2.349  0.5318 -0.8167  0.5509
   14CHTO  H142 5632   4.502   5.559   2.286 -1.1344 -0.8857 -0.1790
   14CHTO   C79 5633   4.601   5.601   2.576 -0.2024  0.0815 -0.2235
   14CHTO  H151 5634   4.535   5.674   2.623 -2.9052 -1.7694 -1.0238
   14CHTO   O52 5635   4.661   5.521   2.687 -0.2918 -0.0747  0.3415
   14CHTO   C86 5636   4.709   5.393   2.657 -0.3558  0.0656  0.5104
   14CHTO  H158 5637   4.799   5.405   2.593 -1.6627  0.2814 -1.3403
   14CHTO   C90 5638   4.759   5.323   2.782 -0.5327  0.1625  0.3470
   14CHTO   O60 5639   4.651   5.280   2.870  0.2494 -0.0980 -0.0411
   14CHTO  H138 5640   4.661   5.331   2.949  2.7848  1.1364 -1.0896
   14CHTO   O50 5641   4.711   5.658   2.503 -0.6415 -0.4482 -0.3243
   14CHTO   C73 5642   4.738   5.796   2.543  0.1062  0.0587 -0.7283
   14CHTO  H145 5643   4.691   5.813   2.641  0.3589  0.7314 -0.7226
   14CHTO   C74 5644   4.665   5.882   2.431  0.0069  0.1933  0.0587
   14CHTO  H146 5645   4.561   5.848   2.421  0.5256 -0.6524 -2.7447
   14CHTO   O54 5646   4.657   6.020   2.472 -1.2058  0.4647 -0.1819
   14CHTO  H133 5647   4.617   6.035   2.555 -1.2402 -1.9018  0.2560
   14CHTO   C75 5648   4.751   5.854   2.296  0.1705  0.1415 -0.2063
   14CHTO  H147 5649   4.734   5.749   2.271 -0.8498 -0.2464  1.9660
   14CHTO   N13 5650   4.704   5.935   2.179  0.6113  0.2271  0.0642
   14CHTO  H139 5651   4.761   5.921   2.088 -0.2839 -1.2346 -0.2865
   14CHTO  H140 5652   4.601   5.907   2.160  0.4321  0.0590  1.2664
   14CHTO   C76 5653   4.900   5.880   2.321  0.3976 -0.0576 -0.8320
   14CHTO  H148 5654   4.902   5.987   2.344  1.7105 -0.6752  2.1902
   14CHTO   O49 5655   4.958   5.802   2.435  0.0286 -0.2207  0.8995
   14CHTO   C77 5656   4.887   5.833   2.550 -0.2804  0.1170 -0.4077
   14CHTO  H149 5657   4.905   5.938   2.573  2.3788 -0.7124  1.6011
   14CHTO   C88 5658   4.949   5.754   2.662  0.3394 -0.0105 -0.1480
   14CHTO   O58 5659   5.076   5.801   2.687 -0.2950 -0.5590 -0.2368
   14CHTO  H136 5660   5.103   5.750   2.761 -0.0481 -2.3234 -1.5174
   14CHTO   O51 5661   4.995   5.837   2.188  0.4194 -0.7836  0.6629
   14CHTO   C78 5662   5.134   5.879   2.169 -0.4154  0.6185  0.6906
   14CHTO  H150 5663   5.172   5.935   2.258  0.2069  1.6470 -0.2151
   14CHTO   C80 5664   5.144   5.968   2.043 -0.6900  0.2244 -0.4268
   14CHTO  H152 5665   5.091   5.913   1.963  1.1965 -2.0514 -0.1705
   14CHTO   O55 5666   5.074   6.088   2.077 -0.5691  0.1265  0.8037
   14CHTO  H134 5667   5.137   6.154   2.095 -0.3840 -0.3996  2.1447
   14CHTO   C84 5668   5.300   5.999   2.007 -0.0706  0.3879 -0.0073
   14CHTO  H156 5669   5.335   6.073   2.079 -0.9024 -0.0454  0.8494
   14CHTO   N15 5670   5.308   6.069   1.878  0.2371 -0.0335  0.0192
   14CHTO  H143 5671   5.362   6.161   1.882  1.7066 -0.9073  0.5014
   14CHTO  H144 5672   5.351   6.002   1.807 -0.7656 -0.2661 -0.3839
   14CHTO   C87 5673   5.387   5.871   2.010 -1.1957 -0.3995  0.2839
   14CHTO  H159 5674   5.367   5.805   1.926 -0.4199  0.7408 -0.7994
   14CHTO   O53 5675   5.363   5.790   2.144  0.1591 -0.4493 -0.2751
   14CHTO   C82 5676   5.222   5.753   2.159 -0.5042 -0.5452  0.1256
   14CHTO  H154 5677   5.189   5.705   2.067 -1.0175 -1.1762  0.6412
   14CHTO   C89 5678   5.211   5.656   2.270 -0.3413  0.2831  0.1213
   14CHTO   O59 5679   5.265   5.702   2.396  0.4109 -0.2329 -0.0725
   14CHTO  H137 5680   5.203   5.760   2.437 -0.7064 -0.6189 -1.1896
   14CHTO   O45 5681   5.547   5.908   2.012  0.4767  0.1094 -0.5833
   14CHTO   C67 5682   5.639   5.802   1.991  0.2734 -0.0818 -0.5411
   14CHTO  H124 5683   5.613   5.713   2.050 -1.4851 -0.4410 -1.8387
   14CHTO   C65 5684   5.642   5.763   1.834  0.2260 -0.6426  0.0104
   14CHTO  H122 5685   5.540   5.779   1.801  1.6954  1.3816 -3.9641
   14CHTO   O44 5686   5.681   5.631   1.805 -0.2600  0.9703  0.1015
   14CHTO  H102 5687   5.747   5.583   1.852 -1.0251 -2.3760 -2.0354
   14CHTO   C63 5688   5.719   5.879   1.755  0.4257  0.3296 -0.0638
   14CHTO  H120 5689   5.671   5.974   1.780 -0.8555 -0.1264 -0.7427
   14CHTO   N11 5690   5.702   5.880   1.605  0.5879  0.0856 -0.0644
   14CHTO  H108 5691   5.626   5.947   1.570 -0.0448 -1.6513 -2.1069
   14CHTO  H109 5692   5.662   5.786   1.573  0.4017  0.0539  0.2533
   14CHTO   C61 5693   5.864   5.893   1.811  0.0306  0.6165  0.1655
   14CHTO  H118 5694   5.908   5.979   1.758  0.3397  1.1407  1.2722
   14CHTO   O40 5695   5.856   5.930   1.951  0.3814  0.6956 -0.2852
   14CHTO   C68 5696   5.777   5.855   2.050  0.7453  0.1832  0.3595
   14CHTO  H125 5697   5.754   5.928   2.131 -2.1629  0.9588 -1.0901
   14CHTO   C72 5698   5.860   5.740   2.111 -0.4402 -0.9384 -1.2950
   14CHTO   O48 5699   5.984   5.798   2.156 -0.9466  0.1890 -0.7359
   14CHTO  H105 5700   6.042   5.794   2.083 -0.9237 -0.4123 -0.6876
   14CHTO   O38 5701   5.944   5.771   1.793 -0.0032  0.2234 -0.1595
   14CHTO   C55 5702   6.063   5.774   1.706 -0.6500 -0.4980 -0.0649
   14CHTO  H112 5703   6.065   5.872   1.656  2.6645  0.8490  2.5050
   14CHTO   C56 5704   6.048   5.655   1.608  0.3466 -0.2395 -0.0557
   14CHTO  H113 5705   6.044   5.569   1.677  1.2618  0.7221  1.2241
   14CHTO   O42 5706   5.924   5.657   1.535  0.2647  0.2313  0.9356
   14CHTO  H100 5707   5.896   5.741   1.506  2.8078  1.0563  0.6992
   14CHTO   C57 5708   6.170   5.644   1.513 -0.6586 -0.7410  0.0596
   14CHTO  H114 5709   6.159   5.727   1.444 -0.5341  0.5800  1.5902
   14CHTO   N10 5710   6.172   5.524   1.425  0.1383  0.0473 -0.2302
   14CHTO  H106 5711   6.211   5.437   1.474 -3.0376  0.1128  2.5904
   14CHTO  H107 5712   6.239   5.554   1.345  0.6889 -0.3858  0.0668
   14CHTO   C58 5713   6.303   5.671   1.589 -0.2373  0.2239  1.0468
   14CHTO  H115 5714   6.326   5.582   1.651 -1.6050  0.7551  2.3465
   14CHTO   O37 5715   6.297   5.785   1.677 -0.0683  0.1160 -0.1356
   14CHTO   C59 5716   6.201   5.775   1.787  0.3590 -0.1102 -0.2898
   14CHTO  H116 5717   6.220   5.685   1.845  0.9641 -1.4702 -2.5207
   14CHTO   C70 5718   6.212   5.897   1.886 -0.4905 -0.3365  0.1486
   14CHTO   O46 5719   6.333   5.905   1.959 -0.1817  0.2457  0.8502
   14CHTO  H103 5720   6.405   5.944   1.913  2.3920 -0.9021  3.7585
   14CHTO   O39 5721   6.443   5.708   1.470 -0.4042 -0.7925 -0.0260
   14CHTO   C60 5722   6.576   5.660   1.501 -0.9645 -0.0094 -0.5800
   14CHTO  H117 5723   6.645   5.692   1.422  0.5936  0.8134  1.0886
   14CHTO   C62 5724   6.630   5.703   1.646 -0.7669  0.7184 -0.6085
   14CHTO  H119 5725   6.635   5.813   1.662  2.4219  0.4521  0.4822
   14CHTO   O43 5726   6.554   5.641   1.749 -0.0699  0.1657 -0.7493
   14CHTO  H101 5727   6.576   5.550   1.749  1.8014  0.5477  2.2516
   14CHTO   C66 5728   6.783   5.658   1.660  1.1593 -0.8572  0.1462
   14CHTO  H123 5729   6.841   5.707   1.582  0.7851 -0.8521 -0.1266
   14CHTO   N12 5730   6.842   5.698   1.789  0.5618  0.4585  0.1687
   14CHTO  H110 5731   6.940   5.739   1.771  0.9794 -0.8463 -0.6033
   14CHTO  H111 5732   6.857   5.612   1.852  1.2393 -2.6302 -4.0081
   14CHTO   C69 5733   6.782   5.503   1.644  0.2012  0.3565  0.6452
   14CHTO  H126 5734   6.749   5.456   1.739  2.3123  0.6183  1.5436
   14CHTO   O41 5735   6.681   5.437   1.524 -0.3222 -0.0974  0.1619
   14CHTO   C64 5736   6.568   5.499   1.485  0.1035 -0.3585 -0.2388
   14CHTO  H121 5737   6.485   5.459   1.547  0.5656 -1.1621 -0.1430
   14CHTO   C71 5738   6.542   5.459   1.336  0.3171 -0.2023 -1.6372
   14CHTO   O47 5739   6.543   5.323   1.295 -0.1831 -1.0786 -0.4519
   14CHTO  H104 5740   6.456   5.291   1.304 -0.9364  0.7917 -0.8093
   14CHTO   O34 5741   6.917   5.466   1.609  0.0123 -0.7579  0.5409
   14CHTO   C49 5742   7.029   5.357   1.554 -0.1130 -0.0911  0.7382
   14CHTO   H91 5743   7.026   5.275   1.627  3.6273 -0.2547  0.7642
   14CHTO   C47 5744   7.166   5.431   1.570  0.0785  0.4457 -0.2650
   14CHTO   H89 5745   7.242   5.353   1.552 -0.5445 -0.3202  0.3705
   14CHTO   O33 5746   7.189   5.483   1.699 -0.3834 -0.1889 -0.5195
   14CHTO   H70 5747   7.158   5.432   1.771  0.6182  0.1993  0.2063
   14CHTO   C45 5748   7.162   5.559   1.469 -0.0769 -0.1007  0.4642
   14CHTO   H87 5749   7.126   5.642   1.532  1.1651 -0.6528  1.9314
   14CHTO    N8 5750   7.301   5.591   1.431 -0.4928 -0.4542 -0.3554
   14CHTO   H75 5751   7.311   5.658   1.347 -0.1972  1.8093  1.4682
   14CHTO   H76 5752   7.340   5.639   1.519 -0.3540 -0.8033 -0.2260
   14CHTO   C43 5753   7.059   5.535   1.354 -0.4340  0.7049  0.4566
   14CHTO   H85 5754   6.962   5.563   1.394 -0.4713  1.6106 -0.2634
   14CHTO   O29 5755   7.062   5.398   1.306 -0.3402 -0.7104  0.2750
   14CHTO   C50 5756   7.024   5.311   1.408 -0.0521  0.2925 -0.0192
   14CHTO   H92 5757   6.917   5.301   1.384 -0.2708 -0.0948  1.0595
   14CHTO   C54 5758   7.090   5.171   1.396  1.0365 -0.4893  0.0039
   14CHTO   O36 5759   7.226   5.186   1.370  0.3879  0.4206 -0.0889
   14CHTO   H72 5760   7.256   5.114   1.319  0.5245  0.9586 -0.7873
   14CHTO   O27 5761   7.085   5.626   1.247  0.2727  0.1728  0.1526
   14CHTO   C37 5762   7.001   5.698   1.156  0.2080  0.7461  0.0310
   14CHTO   H79 5763   7.051   5.725   1.062 -0.9738  1.4368 -0.4171
   14CHTO   C38 5764   6.870   5.616   1.110 -0.0206 -0.2590 -0.1059
   14CHTO   H80 5765   6.831   5.566   1.200  2.6503 -0.4150  1.0031
   14CHTO   O31 5766   6.907   5.520   1.010  0.1908 -0.2135  0.2072
   14CHTO   H68 5767   6.920   5.437   1.052 -0.5371 -0.3292  0.2005
   14CHTO   C39 5768   6.767   5.725   1.050 -0.0919  0.1006  0.2116
   14CHTO   H81 5769   6.800   5.762   0.953  1.8409 -0.4418  0.6515
   14CHTO    N7 5770   6.635   5.655   1.032  0.3538  0.2664  0.3328
   14CHTO   H73 5771   6.645   5.553   0.998  0.3797  0.9176 -1.7388
   14CHTO   H74 5772   6.576   5.711   0.961  1.8859  1.3932 -0.0878
   14CHTO   C40 5773   6.756   5.844   1.157 -0.0515  0.9525  0.4026
   14CHTO   H82 5774   6.714   5.819   1.254 -0.3812 -1.9363 -0.4215
   14CHTO   O26 5775   6.884   5.905   1.170 -0.0001  0.5066 -0.1999
   14CHTO   C41 5776   6.985   5.827   1.229 -0.1687  0.0381  0.1308
   14CHTO   H83 5777   6.960   5.810   1.335  0.6340 -1.6869  0.0673
   14CHTO   C52 5778   7.120   5.903   1.226 -0.4871  0.2849  0.3741
   14CHTO   O35 5779   7.118   6.025   1.315 -0.6376 -0.4254  0.2079
   14CHTO   H71 5780   7.197   6.076   1.309 -1.7947  1.6716  2.1464
   14CHTO   O28 5781   6.679   5.958   1.105  0.5099  0.4915 -0.2244
   14CHTO   C42 5782   6.606   6.055   1.191  0.3224  0.4433 -0.6717
   14CHTO   H84 5783   6.578   6.139   1.127  1.4270  1.8806  0.6912
   14CHTO   C44 5784   6.690   6.116   1.311  0.2339 -0.2379 -1.0354
   14CHTO   H86 5785   6.711   6.035   1.381 -2.3666  0.1606  0.2580
   14CHTO   O32 5786   6.811   6.155   1.256 -0.0982 -0.5394 -0.1497
   14CHTO   H69 5787   6.787   6.217   1.190 -1.1157 -0.2171  0.5065
   14CHTO   C48 5788   6.606   6.237   1.380  0.2451 -0.1067 -0.4524
   14CHTO   H90 5789   6.592   6.309   1.299 -0.1247  1.9152  1.3915
   14CHTO    N9 5790   6.683   6.301   1.486 -0.7815  0.1976 -0.3235
   14CHTO   H77 5791   6.716   6.227   1.558  1.2633  1.5953  0.2045
   14CHTO   H78 5792   6.766   6.355   1.445 -1.3572  1.6739  0.4133
   14CHTO   C51 5793   6.465   6.176   1.429 -0.3003 -1.0561 -0.4849
   14CHTO   H93 5794   6.501   6.110   1.508 -0.4589 -0.2700  0.2548
   14CHTO   O30 5795   6.407   6.106   1.323  0.0216 -0.3277  0.1248
   14CHTO   C46 5796   6.468   5.999   1.255  0.1025 -0.5841 -0.6450
   14CHTO   H88 5797   6.486   5.923   1.331  0.9230 -1.7919 -2.0196
   14CHTO   C53 5798   6.369   5.941   1.144 -0.5665  0.8796  0.1455
   14CHTO   O72 5799   6.250   5.879   1.209  0.1117  0.1659 -0.0476
   14CHTO  H199 5800   6.182   5.863   1.146  0.1199 -1.4612  0.3240
   14CHTO   O22 5801   6.367   6.270   1.484  0.0037 -0.4316  0.5342
   14CHTO   C31 5802   6.291   6.245   1.601  0.1463 -0.3545  0.6108
   14CHTO   H59 5803   6.326   6.150   1.646  1.1655  0.1650  0.9158
   14CHTO   C29 5804   6.313   6.351   1.706  0.1770  0.2179  0.3465
   14CHTO   H57 5805   6.291   6.446   1.655 -0.5164 -1.1954 -2.0724
   14CHTO   O21 5806   6.451   6.334   1.744 -0.2578 -0.3857  0.3128
   14CHTO   H37 5807   6.468   6.256   1.794  0.7200  0.3008  1.0838
   14CHTO   C27 5808   6.220   6.339   1.830 -0.3273 -0.9299  0.0964
   14CHTO   H55 5809   6.248   6.249   1.887  1.1403  1.0178  2.6249
   14CHTO    N5 5810   6.235   6.452   1.927 -0.1578  0.7704 -0.2908
   14CHTO   H43 5811   6.337   6.480   1.950 -0.8920  1.5934  2.1542
   14CHTO   H44 5812   6.178   6.541   1.906 -2.7401 -0.0579  2.8603
   14CHTO   C25 5813   6.075   6.323   1.785  0.3768  0.7786  0.1297
   14CHTO   H53 5814   6.045   6.403   1.716  0.8572  0.1973 -0.7607
   14CHTO   O17 5815   6.064   6.210   1.701 -0.5442 -0.1659  0.4286
   14CHTO   C32 5816   6.140   6.224   1.580  0.5637 -0.0591 -0.0818
   14CHTO   H60 5817   6.099   6.299   1.513  1.7720  0.6697 -0.0218
   14CHTO   C36 5818   6.130   6.097   1.502  0.8868  0.2693 -0.8042
   14CHTO   O25 5819   5.997   6.060   1.457  0.3286  0.3748  0.1068
   14CHTO   H40 5820   5.991   5.982   1.405  0.7737 -0.3234  1.0976
   14CHTO   O15 5821   5.960   6.316   1.922 -0.2885  0.6415  0.3246
   14CHTO   C19 5822   5.913   6.246   2.032 -0.0578 -0.0388 -0.5981
   14CHTO   H47 5823   5.893   6.145   1.995 -2.7784 -0.8147  2.7487
   14CHTO   C20 5824   6.004   6.238   2.157 -0.0231  0.4248 -0.5852
   14CHTO   H48 5825   6.019   6.336   2.205 -1.0867  0.9347 -1.2873
   14CHTO   O19 5826   6.131   6.182   2.113 -0.6368  0.1371  0.2928
   14CHTO   H35 5827   6.182   6.251   2.075 -1.1056 -0.5073 -1.5537
   14CHTO   C21 5828   5.936   6.158   2.266  0.3439 -1.0931 -0.2421
   14CHTO   H49 5829   5.925   6.057   2.226  0.9246 -1.0640 -0.4876
   14CHTO    N4 5830   6.023   6.131   2.387 -0.0990  0.2471  0.1748
   14CHTO   H41 5831   5.962   6.084   2.462  0.8624 -1.2799  0.0093
   14CHTO   H42 5832   6.093   6.055   2.354  1.6998  0.4180  3.4328
   14CHTO   C22 5833   5.800   6.221   2.300  0.2709  0.6041  0.1986
   14CHTO   H50 5834   5.806   6.327   2.325  3.2144  0.1737  1.5832
   14CHTO   O14 5835   5.719   6.217   2.183  0.5842 -0.4788  0.3535
   14CHTO   C23 5836   5.775   6.299   2.082 -0.4346  0.0905 -0.4262
   14CHTO   H51 5837   5.778   6.403   2.119 -0.9209  0.1021 -0.4052
   14CHTO   C34 5838   5.676   6.307   1.963 -0.2989 -0.1239  0.5935
   14CHTO   O23 5839   5.642   6.182   1.906  0.2629  0.1114 -0.2095
   14CHTO   H38 5840   5.603   6.193   1.822  2.6379 -0.8625 -1.4771
   14CHTO   O16 5841   5.723   6.146   2.402  0.2192  0.0178 -0.1346
   14CHTO   C24 5842   5.600   6.232   2.461  0.1467  0.0431  0.0092
   14CHTO   H52 5843   5.563   6.300   2.385  3.2618  2.6274  0.6752
   14CHTO   C26 5844   5.634   6.309   2.587 -0.6371 -0.1888 -0.2014
   14CHTO   H54 5845   5.676   6.235   2.658  1.2453  1.8573  0.8503
   14CHTO   O20 5846   5.735   6.404   2.554  0.4212 -0.0778 -0.2193
   14CHTO   H36 5847   5.687   6.478   2.523  1.7240  0.1457 -1.7825
   14CHTO   C30 5848   5.502   6.371   2.646  0.0183  0.1885 -0.5834
   14CHTO   H58 5849   5.466   6.438   2.566  0.7480  0.9619 -0.2878
   14CHTO    N6 5850   5.518   6.471   2.763  0.6983  0.1132  0.3010
   14CHTO   H45 5851   5.580   6.555   2.738 -0.3741  0.6674 -0.5535
   14CHTO   H46 5852   5.552   6.419   2.851 -0.9676 -0.8902  0.3789
   14CHTO   C33 5853   5.390   6.263   2.670  0.0640  0.0017 -0.8241
   14CHTO   H61 5854   5.435   6.193   2.742  0.2877 -0.7740 -1.7165
   14CHTO   O18 5855   5.375   6.207   2.539  0.1730  0.3848 -0.3902
   14CHTO   C28 5856   5.489   6.135   2.492  0.2777 -0.0880 -0.5236
   14CHTO   H56 5857   5.524   6.056   2.558 -2.0304 -1.3378 -0.7163
   14CHTO   C35 5858   5.450   6.067   2.357 -0.4776  0.2329 -0.7913
   14CHTO   O24 5859   5.555   5.987   2.298  0.5773 -0.2805 -0.2831
   14CHTO   H39 5860   5.636   6.034   2.309  0.4647  0.0844 -1.0174
   14CHTO    O9 5861   5.263   6.310   2.729  0.4989  0.2266  0.0114
   14CHTO   C13 5862   5.179   6.200   2.795 -0.5066 -0.6591 -0.2118
   14CHTO   H26 5863   5.199   6.104   2.743 -1.6559 -0.4615 -1.0388
   14CHTO   C11 5864   5.021   6.230   2.794  0.0165 -0.6587  0.6375
   14CHTO   H24 5865   4.978   6.229   2.693 -1.8442 -1.9553  1.4263
   14CHTO    O8 5866   5.008   6.367   2.843 -0.6684  0.3181  0.4001
   14CHTO    H3 5867   5.045   6.373   2.929 -0.1899  1.4245  0.1226
   14CHTO    C9 5868   4.939   6.123   2.873 -0.4109  0.2738 -0.4368
   14CHTO   H22 5869   4.942   6.029   2.816 -3.3322  0.0323 -0.2981
   14CHTO    N2 5870   4.797   6.155   2.866 -0.4932  0.0851 -0.5024
   14CHTO   H10 5871   4.779   6.205   2.772  2.9500  0.6291 -0.9442
   14CHTO   H11 5872   4.740   6.065   2.881 -1.2677  0.8402  1.2242
   14CHTO    C7 5873   4.998   6.107   3.019  0.9872 -0.1576  0.1842
   14CHTO   H20 5874   4.961   6.009   3.053  1.6990 -0.4974  0.0044
   14CHTO    O4 5875   5.141   6.091   3.019 -0.0410 -0.2063 -0.1442
   14CHTO   C14 5876   5.232   6.171   2.940  0.0990  0.2523  0.3226
   14CHTO   H27 5877   5.331   6.121   2.928 -0.4286 -0.4773 -1.1838
   14CHTO   C18 5878   5.251   6.301   3.020  0.2941  0.5161  0.7413
   14CHTO   O13 5879   5.335   6.262   3.125 -0.0153 -0.1336  0.2477
   14CHTO    H7 5880   5.359   6.342   3.170  0.9945  0.0148 -0.5519
   14CHTO    O2 5881   4.955   6.229   3.117  0.1301 -0.2228  0.3059
   14CHTO    C1 5882   4.902   6.184   3.243  0.2097  0.3397 -0.1082
   14CHTO   H14 5883   4.938   6.081   3.266  2.4842  0.6929 -1.8793
   14CHTO    C2 5884   4.741   6.186   3.247 -0.8957  0.5594 -0.7686
   14CHTO   H15 5885   4.723   6.291   3.220  1.3370  1.6893  1.9106
   14CHTO    O6 5886   4.689   6.094   3.151  0.5464 -0.1686  0.0875
   14CHTO    H1 5887   4.693   6.006   3.183  1.3305 -0.4438 -0.7214
   14CHTO    C3 5888   4.696   6.143   3.381 -0.3484  0.0051  0.2283
   14CHTO   H16 5889   4.724   6.041   3.412 -1.4401  0.5051  2.9669
   14CHTO    N1 5890   4.545   6.141   3.402  0.7493 -0.0096 -0.2453
   14CHTO    H8 5891   4.496   6.063   3.345 -1.8516  0.3859  1.3789
   14CHTO    H9 5892   4.510   6.242   3.382 -0.0088 -0.2902 -0.3561
   14CHTO    C4 5893   4.761   6.235   3.490 -0.1269 -0.0467  0.7309
   14CHTO   H17 5894   4.721   6.336   3.481 -2.1699 -1.0276 -2.3185
   14CHTO    O1 5895   4.907   6.227   3.479  0.0263  0.0087  0.4144
   14CHTO    C5 5896   4.956   6.283   3.351 -0.3820  0.9615 -0.2815
   14CHTO   H18 5897   4.913   6.382   3.334  0.5048  1.1843 -1.2584
   14CHTO   C16 5898   5.108   6.291   3.376 -0.9984 -0.6807  0.0677
   14CHTO   O11 5899   5.189   6.181   3.379  0.2610  0.0148 -0.7851
   14CHTO    H5 5900   5.210   6.156   3.291 -1.6753 -1.4549 -0.8520
   14CHTO    O3 5901   4.730   6.185   3.624  0.2053 -0.0649 -0.0278
   14CHTO    C6 5902   4.722   6.283   3.734 -0.3841 -0.0893  0.3373
   14CHTO   H19 5903   4.792   6.365   3.722 -0.3932  0.1976  2.1801
   14CHTO    C8 5904   4.577   6.333   3.742  0.2841 -0.4821  0.2092
   14CHTO   H21 5905   4.508   6.252   3.719 -0.0410 -0.2926  0.5170
   14CHTO    O7 5906   4.560   6.433   3.634  0.3780 -0.1259 -0.0116
   14CHTO    H2 5907   4.530   6.395   3.554  0.4280 -1.0534  0.4073
   14CHTO   C12 5908   4.531   6.384   3.885  0.1309  0.5005 -0.5098
   14CHTO   H25 5909   4.570   6.487   3.898 -1.2993  1.0941 -0.8574
   14CHTO    N3 5910   4.385   6.405   3.891 -0.1205 -0.7199  0.5333
   14CHTO   H12 5911   4.346   6.314   3.847  0.0978  0.4780 -2.2826
   14CHTO   H13 5912   4.349   6.425   3.991 -0.3882  2.1400 -0.0855
   14CHTO   C15 5913   4.593   6.286   3.996 -0.6512  0.2912 -0.8120
   14CHTO   H28 5914   4.550   6.186   3.992 -2.7108  1.1630 -0.7845
   14CHTO   O10 5915   4.600   6.344   4.139 -0.1034 -0.6601 -0.6105
   14CHTO    H4 5916   4.510   6.362   4.161  0.6849 -0.1872  2.4825
   14CHTO    O5 5917   4.734   6.275   3.977 -0.0801  0.0627 -0.2521
   14CHTO   C10 5918   4.765   6.205   3.859  0.1413  0.1693  0.4701
   14CHTO   H23 5919   4.716   6.109   3.872  1.9745 -0.6313  1.5132
   14CHTO   C17 5920   4.915   6.165   3.842 -0.0077  0.0423  0.1839
   14CHTO   O12 5921   4.996   6.284   3.839 -0.4526  0.5724  0.3483
   14CHTO    H6 5922   4.991   6.328   3.756 -1.6438  1.4280  0.8502
   15CHTO  H203 5923   5.988   5.172   2.752  0.9888 -0.1938 -1.4537
   15CHTO   O82 5924   5.899   5.144   2.745  0.7195  0.1575  0.4067
   15CHTO  C123 5925   5.906   5.043   2.646  0.4426 -0.0730 -0.4678
   15CHTO  H227 5926   5.961   4.955   2.684 -0.0103 -1.2823 -2.5672
   15CHTO   O77 5927   5.767   5.005   2.633 -0.4056 -0.3896 -0.3342
   15CHTO  C118 5928   5.735   4.911   2.532  0.0999 -1.0128 -0.1655
   15CHTO  H222 5929   5.783   4.819   2.568 -0.7637 -1.0912  0.8198
   15CHTO  C125 5930   5.578   4.881   2.517  0.3074  0.7064  0.2216
   15CHTO   O84 5931   5.515   4.865   2.643  0.2028 -0.2434 -0.5610
   15CHTO  H205 5932   5.521   4.776   2.671  1.2086 -0.2838 -0.8871
   15CHTO  C114 5933   5.793   4.939   2.389 -0.4795 -0.4038  0.8070
   15CHTO  H218 5934   5.741   5.024   2.345 -1.3660 -1.6350 -0.5446
   15CHTO  C116 5935   5.938   4.978   2.401 -0.4970  0.3720  0.2041
   15CHTO  H220 5936   6.009   4.895   2.418 -0.2048  0.3813 -0.9224
   15CHTO   O79 5937   5.975   5.028   2.272  0.5175  0.7954  0.3606
   15CHTO  H201 5938   6.063   5.006   2.251  0.8538  0.2012  2.2411
   15CHTO  C120 5939   5.966   5.091   2.507 -0.5098  0.9905 -0.5834
   15CHTO  H224 5940   5.913   5.180   2.468  2.8906  2.1832 -2.6582
   15CHTO   N21 5941   6.104   5.140   2.512 -0.3345  0.2364 -0.2382
   15CHTO  H211 5942   6.172   5.085   2.575  0.8738 -1.2839 -2.7941
   15CHTO  H212 5943   6.112   5.247   2.516 -0.7750  0.2636 -0.0374
   15CHTO   O75 5944   5.758   4.825   2.310 -0.3151  0.1259 -0.1258
   15CHTO  C112 5945   5.854   4.692   2.310 -0.9671 -0.1386 -0.3195
   15CHTO  H216 5946   5.884   4.678   2.414 -0.6748 -2.5783 -0.7125
   15CHTO   O73 5947   5.964   4.727   2.230 -0.5367 -0.1453  0.5912
   15CHTO  C113 5948   6.064   4.618   2.214  0.0935  0.0845  0.5541
   15CHTO  H217 5949   6.120   4.602   2.308 -0.1496 -2.5150  0.2981
   15CHTO  C124 5950   6.177   4.656   2.117  0.3419  0.2288  0.4207
   15CHTO   O83 5951   6.125   4.705   1.989 -0.5605  0.2990 -0.0933
   15CHTO  H204 5952   6.177   4.779   1.969  0.7414 -0.3614  0.7822
   15CHTO  C109 5953   5.997   4.480   2.176 -0.2881 -0.0506  0.2944
   15CHTO  H213 5954   5.980   4.486   2.068 -0.4079  2.5299  0.4419
   15CHTO  C110 5955   5.874   4.443   2.259  0.2435 -0.2164 -0.1679
   15CHTO  H214 5956   5.908   4.418   2.359  1.7332  0.2036 -0.5558
   15CHTO   O78 5957   5.821   4.325   2.201 -0.2423  1.0391 -0.2470
   15CHTO  H200 5958   5.734   4.317   2.235 -0.2526  0.0646 -0.4787
   15CHTO  C111 5959   5.782   4.567   2.253  0.0556  0.2903  0.1275
   15CHTO  H215 5960   5.748   4.590   2.151 -1.4158 -0.7741  0.3495
   15CHTO   N19 5961   5.654   4.547   2.335  0.4788 -0.2085 -0.1691
   15CHTO  H207 5962   5.586   4.628   2.313 -0.8226 -1.4825 -0.9531
   15CHTO  H208 5963   5.673   4.541   2.441  2.2803 -1.0965 -0.5126
   15CHTO   O74 5964   6.099   4.369   2.186  0.6237 -0.4512  0.1110
   15CHTO  C115 5965   6.119   4.263   2.060  0.2333  0.3790 -0.3673
   15CHTO  H219 5966   6.040   4.187   2.059  0.8962 -0.3300  0.5844
   15CHTO   O76 5967   6.120   4.333   1.923 -0.3184  0.0718  0.1192
   15CHTO  C122 5968   6.247   4.352   1.861  0.1128  0.3834  0.6125
   15CHTO  H226 5969   6.305   4.417   1.926  0.1803 -0.8765  1.8317
   15CHTO  C126 5970   6.226   4.424   1.722 -0.6971 -0.6211 -0.4574
   15CHTO   O85 5971   6.194   4.565   1.728  0.0610  0.2976  0.2445
   15CHTO  H206 5972   6.195   4.592   1.638  0.1140  1.3641  0.5575
   15CHTO  C121 5973   6.320   4.210   1.846 -0.2384  0.0677 -0.0630
   15CHTO  H225 5974   6.294   4.165   1.748 -0.3190 -1.0211  0.4545
   15CHTO   O81 5975   6.463   4.226   1.852 -0.1628  0.1654 -0.0753
   15CHTO  H202 5976   6.515   4.236   1.774  3.2314 -0.6142  2.0031
   15CHTO  C119 5977   6.278   4.111   1.954 -0.5675 -0.0430  0.5853
   15CHTO  H223 5978   6.180   4.076   1.919  0.2780 -0.7772 -1.1297
   15CHTO  C117 5979   6.254   4.179   2.083 -0.2485 -0.3618 -0.9753
   15CHTO  H221 5980   6.332   4.241   2.128 -1.1972 -1.3985  2.2274
   15CHTO   N20 5981   6.222   4.078   2.190  0.3341  0.2768 -0.5240
   15CHTO  H209 5982   6.305   4.011   2.209 -0.0901 -0.0198  0.2943
   15CHTO  H210 5983   6.129   4.024   2.179  0.0284  0.4136  1.3629
   15CHTO   O80 5984   6.360   3.972   1.947 -0.4493 -0.2223 -0.5358
   15CHTO  C103 5985   6.292   3.842   1.906 -0.3760  0.4519 -0.5665
   15CHTO  H190 5986   6.366   3.762   1.908  0.1144  0.9150  0.0873
   15CHTO  C101 5987   6.168   3.800   1.989  0.3418  0.2393 -0.5798
   15CHTO  H188 5988   6.104   3.883   2.018 -0.8635 -1.0123  0.3523
   15CHTO   O68 5989   6.215   3.732   2.123 -0.6121 -0.1639 -0.0269
   15CHTO  H168 5990   6.133   3.733   2.167 -0.8136 -0.9095 -0.3744
   15CHTO   C99 5991   6.072   3.693   1.915 -0.3088 -0.4868 -0.9703
   15CHTO  H186 5992   6.114   3.591   1.921 -0.3753 -0.5214 -1.0780
   15CHTO   N17 5993   5.938   3.674   1.988 -0.1845 -0.5061 -0.4857
   15CHTO  H174 5994   5.957   3.707   2.089  2.5418 -2.8070 -0.1934
   15CHTO  H175 5995   5.866   3.738   1.939 -2.7219 -3.0946 -0.2430
   15CHTO   C97 5996   6.054   3.725   1.764  0.0455 -1.0320  0.0012
   15CHTO  H184 5997   5.993   3.816   1.747 -0.3659 -1.7855 -2.9273
   15CHTO   O64 5998   6.180   3.738   1.704 -0.1149 -0.0225 -0.4407
   15CHTO  C104 5999   6.244   3.857   1.758  0.4540  0.8102 -0.7723
   15CHTO  H191 6000   6.180   3.945   1.756 -0.3370  0.2526 -0.3991
   15CHTO  C108 6001   6.356   3.893   1.669 -0.3695 -0.0439  0.1448
   15CHTO   O71 6002   6.316   3.912   1.532 -0.0395 -0.3529 -0.0419
   15CHTO  H171 6003   6.337   3.842   1.473  1.6530 -1.5515  1.9272
   15CHTO   O62 6004   6.015   3.610   1.695 -0.5093  0.8996  0.6358
   15CHTO   C91 6005   5.904   3.614   1.604 -0.3384 -0.3210  0.1922
   15CHTO  H178 6006   5.892   3.715   1.564  0.7883 -0.2301  0.0473
   15CHTO   C92 6007   5.772   3.576   1.676 -0.2504 -0.6576 -0.2156
   15CHTO  H179 6008   5.760   3.631   1.770 -0.8144 -0.2911 -0.4978
   15CHTO   O66 6009   5.669   3.644   1.598 -0.0885  0.3440 -0.4516
   15CHTO  H166 6010   5.591   3.651   1.649  1.5618 -1.5638  2.5139
   15CHTO   C93 6011   5.739   3.421   1.680 -0.3119 -0.1940 -0.8646
   15CHTO  H180 6012   5.630   3.407   1.685 -0.2759 -0.2272 -0.2264
   15CHTO   N16 6013   5.792   3.360   1.800  0.5479  0.0498  0.1427
   15CHTO  H172 6014   5.900   3.361   1.795  0.6143 -1.5018  1.1197
   15CHTO  H173 6015   5.759   3.258   1.815  0.7287 -0.0617 -0.2019
   15CHTO   C94 6016   5.785   3.340   1.553 -0.7698  0.2598 -0.0594
   15CHTO  H181 6017   5.874   3.278   1.571 -0.2141  1.2968  0.8001
   15CHTO   O61 6018   5.833   3.425   1.445  0.6203 -0.7935  0.0069
   15CHTO   C95 6019   5.941   3.516   1.476  0.1434  0.4576  0.4225
   15CHTO  H182 6020   6.024   3.450   1.501  0.4820 -1.2182 -4.6072
   15CHTO  C106 6021   5.995   3.612   1.360  0.3655  0.6891 -0.2651
   15CHTO   O69 6022   5.890   3.709   1.319  0.1815  0.2776 -0.1714
   15CHTO  H169 6023   5.913   3.758   1.243 -1.6911  0.2852 -0.7638
   15CHTO   O63 6024   5.659   3.245   1.499 -0.1199 -0.1017 -0.5561
   15CHTO   C96 6025   5.702   3.122   1.418 -0.2669  0.8855 -0.3584
   15CHTO  H183 6026   5.809   3.122   1.397  0.0898  0.7992  1.3848
   15CHTO   C98 6027   5.637   3.126   1.276  0.3963  0.0902  0.4742
   15CHTO  H185 6028   5.533   3.149   1.300  0.9487  1.0201  2.0653
   15CHTO   O67 6029   5.685   3.242   1.204 -0.3047  0.0223  0.3169
   15CHTO  H167 6030   5.777   3.247   1.187  0.0740  0.9137  2.5188
   15CHTO  C102 6031   5.655   2.989   1.197  0.0544 -0.1566  0.1370
   15CHTO  H189 6032   5.760   2.987   1.163 -0.6727 -1.3943 -2.1850
   15CHTO   N18 6033   5.580   2.997   1.068  0.1136  0.5364 -0.4549
   15CHTO  H176 6034   5.511   2.916   1.053 -1.1038  1.3885  0.4024
   15CHTO  H177 6035   5.525   3.090   1.063 -0.7698  0.0822  0.5829
   15CHTO  C105 6036   5.631   2.866   1.287  0.3532 -0.2864  0.0747
   15CHTO  H192 6037   5.526   2.854   1.314  0.4946 -1.0123  0.3019
   15CHTO   O65 6038   5.711   2.881   1.406  0.4215 -0.4198  0.1785
   15CHTO  C100 6039   5.673   2.988   1.492  0.2469  1.3277 -0.0944
   15CHTO  H187 6040   5.565   2.988   1.515 -0.3734  0.2744 -2.8971
   15CHTO  C107 6041   5.748   2.981   1.625  0.1607 -0.1575 -0.7947
   15CHTO   O70 6042   5.888   2.972   1.605 -0.1812  0.5882  0.0695
   15CHTO  H170 6043   5.906   2.982   1.513  0.5046 -0.0084  0.1364
   15CHTO   O57 6044   5.698   2.743   1.195  0.4486  0.0703  0.5023
   15CHTO   C85 6045   5.678   2.618   1.259 -0.1867 -0.8219  0.1649
   15CHTO  H157 6046   5.593   2.634   1.329  0.3045 -0.0491  0.5897
   15CHTO   C83 6047   5.805   2.581   1.347 -0.0551 -0.2227  0.0503
   15CHTO  H155 6048   5.822   2.660   1.420 -1.3013 -0.8121  1.0118
   15CHTO   O56 6049   5.915   2.580   1.259  0.0636  0.2158  0.4495
   15CHTO  H135 6050   5.959   2.662   1.271  0.3095 -0.1410  2.1493
   15CHTO   C81 6051   5.779   2.447   1.426 -0.2632 -0.4869  0.1717
   15CHTO  H153 6052   5.696   2.464   1.495 -1.0146  0.7941 -1.0162
   15CHTO   N14 6053   5.890   2.396   1.512  0.2586 -0.0466  0.0118
   15CHTO  H141 6054   5.918   2.297   1.481 -1.7104  0.0293 -2.1566
   15CHTO  H142 6055   5.976   2.459   1.501  1.6375 -1.2624  3.2356
   15CHTO   C79 6056   5.737   2.334   1.317  0.6684  0.2804 -0.1557
   15CHTO  H151 6057   5.717   2.244   1.374  1.4484 -0.9549 -1.7985
   15CHTO   O52 6058   5.614   2.378   1.242  0.6320  0.4436  0.6782
   15CHTO   C86 6059   5.641   2.500   1.167 -0.9582  0.3005  0.0847
   15CHTO  H158 6060   5.725   2.479   1.098 -1.9731  0.3511 -1.1735
   15CHTO   C90 6061   5.509   2.516   1.076  0.1230 -0.1006  0.6783
   15CHTO   O60 6062   5.475   2.410   0.986 -0.4949 -0.3645  0.3567
   15CHTO  H138 6063   5.548   2.388   0.932  0.0343  2.0194  0.0283
   15CHTO   O50 6064   5.836   2.289   1.225  0.2990 -0.0956  0.4095
   15CHTO   C73 6065   5.844   2.210   1.106 -1.0555  0.2927  0.1994
   15CHTO  H145 6066   5.752   2.212   1.046  0.5658 -0.6693 -2.4023
   15CHTO   C74 6067   5.873   2.059   1.146  0.7016  0.0981 -0.2586
   15CHTO  H146 6068   5.789   2.031   1.211  1.4851  0.4684  0.9602
   15CHTO   O54 6069   5.878   1.988   1.020 -0.2235 -0.6622 -0.1053
   15CHTO  H133 6070   5.927   2.034   0.955  0.7432  1.2330  1.8880
   15CHTO   C75 6071   6.010   2.057   1.235 -0.4850  0.9617 -0.5531
   15CHTO  H147 6072   6.002   2.125   1.321 -2.5991 -0.0047  0.0704
   15CHTO   N13 6073   6.049   1.934   1.313 -0.9040  0.0738 -0.5552
   15CHTO  H139 6074   6.156   1.918   1.315 -0.9424  0.0079  1.6035
   15CHTO  H140 6075   6.002   1.918   1.409  0.9343  0.1526  0.3727
   15CHTO   C76 6076   6.131   2.094   1.146 -0.0054  0.2451 -0.1499
   15CHTO  H148 6077   6.145   2.025   1.064  2.8417  0.6795 -0.0708
   15CHTO   O49 6078   6.102   2.231   1.087 -0.0561  0.0973  0.0428
   15CHTO   C77 6079   5.976   2.258   1.022 -0.3091 -0.2452 -0.5023
   15CHTO  H149 6080   5.983   2.204   0.927  1.6695  0.0635 -0.5551
   15CHTO   C88 6081   5.979   2.407   0.990 -0.5268  0.0742  0.2734
   15CHTO   O58 6082   5.869   2.436   0.896 -0.1142 -0.4381 -0.3403
   15CHTO  H136 6083   5.809   2.495   0.937 -0.2946 -1.4435  0.8898
   15CHTO   O51 6084   6.258   2.118   1.214  0.2232  0.7568 -0.2182
   15CHTO   C78 6085   6.379   2.112   1.093  0.3611 -0.4798 -0.0839
   15CHTO  H150 6086   6.343   2.142   0.993 -0.6803  1.4977  0.8362
   15CHTO   C80 6087   6.445   1.971   1.085  0.2201 -0.2047  0.4768
   15CHTO  H152 6088   6.468   1.939   1.188 -0.3523  0.9224  0.9679
   15CHTO   O55 6089   6.355   1.874   1.034 -0.3009 -0.3353 -0.2924
   15CHTO  H134 6090   6.393   1.789   1.024  0.1575 -0.1278 -0.3252
   15CHTO   C84 6091   6.577   1.967   0.993 -0.0476 -0.0668 -0.2231
   15CHTO  H156 6092   6.549   1.975   0.888 -1.4147  1.1063  0.2146
   15CHTO   N15 6093   6.659   1.839   1.002  0.6340 -0.7141  0.0222
   15CHTO  H143 6094   6.678   1.823   1.106 -2.0247 -0.4902  0.5753
   15CHTO  H144 6095   6.748   1.840   0.942 -0.8133 -2.3266 -2.2390
   15CHTO   C87 6096   6.672   2.087   1.020 -0.9734 -0.1969 -0.2180
   15CHTO  H159 6097   6.719   2.068   1.117  1.0340 -2.0215 -1.4961
   15CHTO   O53 6098   6.577   2.234   1.020  0.4551  0.1041  0.2772
   15CHTO   C82 6099   6.474   2.228   1.124 -0.5713 -0.0494 -0.0532
   15CHTO  H154 6100   6.532   2.213   1.215 -0.5068 -2.1477 -0.4118
   15CHTO   C89 6101   6.406   2.366   1.131  0.5646  0.4915  0.3705
   15CHTO   O59 6102   6.353   2.417   1.005 -0.0829  0.0905  0.2559
   15CHTO  H137 6103   6.323   2.505   1.022 -0.8891  0.4140 -2.5244
   15CHTO   O45 6104   6.771   2.108   0.891 -0.1845  0.4879 -0.1776
   15CHTO   C67 6105   6.869   2.208   0.911  0.1270 -0.2700  0.8292
   15CHTO  H124 6106   6.828   2.273   0.988  0.1623 -0.2316  0.8155
   15CHTO   C65 6107   7.014   2.164   0.959  0.0651 -0.6557  0.0919
   15CHTO  H122 6108   7.029   2.059   0.935 -0.4996 -0.5698 -0.6638
   15CHTO   O44 6109   7.013   2.165   1.108 -1.4828 -0.5865  0.0574
   15CHTO  H102 6110   7.053   2.089   1.145 -0.1687  0.2161  0.3121
   15CHTO   C63 6111   7.130   2.244   0.887  0.1027 -0.0490 -0.3922
   15CHTO  H120 6112   7.137   2.218   0.782  4.1400 -0.0498 -0.2076
   15CHTO   N11 6113   7.271   2.224   0.933 -0.6202  0.7615  0.4340
   15CHTO  H108 6114   7.270   2.225   1.040 -0.0053  0.1005  0.4471
   15CHTO  H109 6115   7.334   2.302   0.896 -0.6143 -0.1582 -1.5749
   15CHTO   C61 6116   7.089   2.394   0.889 -0.0345  0.7774  0.1845
   15CHTO  H118 6117   7.169   2.456   0.848 -0.6330  2.1433  1.0454
   15CHTO   O40 6118   6.965   2.414   0.803 -0.4133  0.1440 -0.1766
   15CHTO   C68 6119   6.870   2.302   0.782 -0.3774 -0.2213  1.0288
   15CHTO  H125 6120   6.922   2.246   0.702 -0.0995 -0.9867  1.7295
   15CHTO   C72 6121   6.731   2.352   0.735  0.5868  0.0478 -0.3488
   15CHTO   O48 6122   6.747   2.445   0.631  0.2524 -0.0379 -0.1789
   15CHTO  H105 6123   6.707   2.400   0.560 -2.0460  1.2583  0.2436
   15CHTO   O38 6124   7.064   2.448   1.023  0.1801 -0.5443  0.8868
   15CHTO   C55 6125   7.003   2.577   1.028 -0.1530 -0.2531 -0.3690
   15CHTO  H112 6126   6.933   2.602   0.947 -0.4299  2.3325  0.5996
   15CHTO   C56 6127   7.113   2.690   1.041  0.4650 -0.3505  0.8442
   15CHTO  H113 6128   7.188   2.654   1.112 -0.5867 -0.2687  2.0166
   15CHTO   O42 6129   7.181   2.699   0.916  0.3696  0.1748 -0.2466
   15CHTO  H100 6130   7.235   2.626   0.891  2.4329  1.4705  0.2405
   15CHTO   C57 6131   7.061   2.835   1.089  0.4404  0.4649  0.8448
   15CHTO  H114 6132   7.022   2.883   1.000  1.0698 -0.0637  0.2819
   15CHTO   N10 6133   7.165   2.929   1.142  0.9355 -0.2358 -0.6773
   15CHTO  H106 6134   7.139   3.032   1.120  1.5598  0.0327 -0.1772
   15CHTO  H107 6135   7.185   2.921   1.248 -1.2663  2.4615  0.0237
   15CHTO   C58 6136   6.950   2.830   1.198  0.0406  0.1657 -0.8368
   15CHTO  H115 6137   6.991   2.810   1.299  0.7810 -1.8850 -1.5057
   15CHTO   O37 6138   6.861   2.721   1.162  0.0118  0.2338  0.6396
   15CHTO   C59 6139   6.919   2.596   1.162  0.1253  0.1342 -0.0332
   15CHTO  H116 6140   6.982   2.592   1.250 -0.8670 -0.4653  0.6572
   15CHTO   C70 6141   6.814   2.488   1.187 -0.4938 -0.2414 -0.8088
   15CHTO   O46 6142   6.704   2.494   1.093  0.1413  0.4479  0.0961
   15CHTO  H103 6143   6.720   2.535   1.010  1.0421  1.2450  0.6580
   15CHTO   O39 6144   6.858   2.955   1.194  0.4961  0.0377  0.1207
   15CHTO   C60 6145   6.787   2.984   1.320  0.2638 -0.0590 -0.5236
   15CHTO  H117 6146   6.744   2.899   1.372 -0.7242  2.0126  2.1522
   15CHTO   C62 6147   6.875   3.063   1.422 -0.0706 -0.6832 -0.5387
   15CHTO  H119 6148   6.955   2.993   1.455  0.3592  0.1404  0.2176
   15CHTO   O43 6149   6.918   3.194   1.366  0.5962 -0.2281  0.1114
   15CHTO  H101 6150   6.850   3.230   1.312  1.9172  1.6393 -0.3519
   15CHTO   C66 6151   6.780   3.083   1.556 -0.2258  0.4877  0.0661
   15CHTO  H123 6152   6.744   2.985   1.586 -1.4460  1.2391  1.0891
   15CHTO   N12 6153   6.846   3.136   1.676 -0.5177 -0.0372 -0.2359
   15CHTO  H110 6154   6.790   3.130   1.768  0.4992  0.0786  0.4011
   15CHTO  H111 6155   6.933   3.072   1.689 -0.8167 -0.2354  0.8498
   15CHTO   C69 6156   6.656   3.173   1.527 -0.1206 -0.0993  0.3476
   15CHTO  H126 6157   6.692   3.271   1.489 -0.6923 -0.3965 -0.9729
   15CHTO   O41 6158   6.575   3.096   1.403  0.0334  0.3746  0.3327
   15CHTO   C64 6159   6.671   3.064   1.276 -0.0618  0.2834  0.0236
   15CHTO  H121 6160   6.717   3.155   1.232 -0.6647 -0.0630 -1.3562
   15CHTO   C71 6161   6.584   2.999   1.170  0.2607  0.1065 -0.0864
   15CHTO   O47 6162   6.549   2.865   1.207  0.5327 -0.4171  0.2808
   15CHTO  H104 6163   6.478   2.864   1.269 -0.9076  0.3735 -1.3137
   15CHTO   O34 6164   6.554   3.190   1.651  0.1845 -0.2089 -0.1963
   15CHTO   C49 6165   6.453   3.327   1.675 -0.0350 -0.3385  0.8440
   15CHTO   H91 6166   6.513   3.409   1.714  0.5372 -0.6782  0.6860
   15CHTO   C47 6167   6.341   3.282   1.767  0.2901  0.3588  1.0729
   15CHTO   H89 6168   6.291   3.381   1.774  2.2400  1.3399  1.5406
   15CHTO   O33 6169   6.398   3.249   1.890  0.0131  0.1763  0.1403
   15CHTO   H70 6170   6.327   3.245   1.952 -0.2554  0.6269 -0.1326
   15CHTO   C45 6171   6.252   3.161   1.697 -0.1078 -0.3781 -0.2232
   15CHTO   H87 6172   6.289   3.064   1.733 -1.3562  0.1026  2.4950
   15CHTO    N8 6173   6.118   3.179   1.744  0.4488  0.3189  0.4233
   15CHTO   H75 6174   6.098   3.277   1.784 -0.4187  1.3135 -2.3654
   15CHTO   H76 6175   6.100   3.112   1.827 -1.3996 -0.4092 -0.5446
   15CHTO   C43 6176   6.271   3.161   1.542 -0.6855 -0.3837  0.8493
   15CHTO   H85 6177   6.369   3.114   1.535  1.1085  3.0297  1.8385
   15CHTO   O29 6178   6.275   3.295   1.495  0.0239 -0.2357 -0.0105
   15CHTO   C50 6179   6.392   3.371   1.536  0.0580  0.2109  0.3280
   15CHTO   H92 6180   6.470   3.355   1.460  0.3623 -0.9164  0.8635
   15CHTO   C54 6181   6.365   3.520   1.519 -0.4506 -0.8208  0.3075
   15CHTO   O36 6182   6.350   3.543   1.380  0.0338  0.3463  0.0313
   15CHTO   H72 6183   6.434   3.560   1.340 -0.3694 -1.4704 -1.6881
   15CHTO   O27 6184   6.185   3.070   1.459  0.5076  0.2260 -0.6939
   15CHTO   C37 6185   6.192   3.044   1.317 -0.6943  0.2721 -0.6367
   15CHTO   H79 6186   6.284   3.072   1.264 -2.2261 -0.3132 -3.7619
   15CHTO   C38 6187   6.187   2.887   1.293  0.0384 -0.1247  0.0216
   15CHTO   H80 6188   6.091   2.856   1.337 -0.0568 -0.4868 -0.4387
   15CHTO   O31 6189   6.296   2.829   1.366 -0.1597  0.0240 -0.0410
   15CHTO   H68 6190   6.284   2.842   1.459  1.1839  3.1628 -0.2589
   15CHTO   C39 6191   6.186   2.856   1.140  0.3156 -0.2661  0.2962
   15CHTO   H81 6192   6.280   2.887   1.094  0.4281  1.2846  1.5561
   15CHTO    N7 6193   6.162   2.712   1.102 -0.0741 -0.0856  0.2191
   15CHTO   H73 6194   6.249   2.665   1.059 -0.7784 -1.4719  0.2636
   15CHTO   H74 6195   6.077   2.708   1.035  2.1495  1.6529 -2.8058
   15CHTO   C40 6196   6.069   2.937   1.078  0.5572 -0.0047 -1.1090
   15CHTO   H82 6197   5.968   2.911   1.111  0.2780  1.4170 -0.8081
   15CHTO   O26 6198   6.096   3.075   1.113 -0.0992  0.2887  0.2194
   15CHTO   C41 6199   6.075   3.106   1.247 -0.0110 -0.1643  0.0276
   15CHTO   H83 6200   5.979   3.070   1.288 -0.9055  1.2972 -0.7346
   15CHTO   C52 6201   6.080   3.255   1.257 -0.6221 -0.3082 -0.6597
   15CHTO   O35 6202   5.983   3.322   1.199  0.6358 -0.0492 -0.0440
   15CHTO   H71 6203   5.995   3.324   1.106 -0.0514  1.0138 -0.1142
   15CHTO   O28 6204   6.062   2.940   0.933 -0.0281  0.0841  0.2164
   15CHTO   C42 6205   6.145   3.017   0.835 -0.1687 -0.6570  0.3386
   15CHTO   H84 6206   6.122   2.962   0.743  0.6609 -2.3285  1.1166
   15CHTO   C44 6207   6.297   3.022   0.853  0.0475  0.2618 -0.0489
   15CHTO   H86 6208   6.314   3.080   0.944 -1.5617  0.4564  0.1367
   15CHTO   O32 6209   6.351   2.890   0.872  0.3906 -0.5750  0.6762
   15CHTO   H69 6210   6.438   2.900   0.906  0.8388  0.1248 -0.6368
   15CHTO   C48 6211   6.373   3.112   0.742 -0.8256 -0.2821  0.8810
   15CHTO   H90 6212   6.378   3.046   0.656 -0.0627  1.9213 -0.8057
   15CHTO    N9 6213   6.517   3.123   0.772  0.7330  0.0725  0.6697
   15CHTO   H77 6214   6.568   3.166   0.687  1.2275  0.4166  1.1346
   15CHTO   H78 6215   6.527   3.179   0.864 -2.2296  1.2141  0.3519
   15CHTO   C51 6216   6.307   3.249   0.705 -0.3994 -0.6541 -0.2576
   15CHTO   H93 6217   6.337   3.316   0.786  2.2078 -0.9023 -0.9718
   15CHTO   O30 6218   6.168   3.238   0.690 -0.1449 -0.0247  1.0403
   15CHTO   C46 6219   6.091   3.165   0.815  0.1592 -0.2050  0.3074
   15CHTO   H88 6220   6.114   3.228   0.901  0.0191  0.5840 -0.2292
   15CHTO   C53 6221   5.943   3.162   0.781 -0.2330  0.6937  0.2853
   15CHTO   O72 6222   5.880   3.167   0.904 -0.0953 -0.3649  0.1037
   15CHTO  H199 6223   5.805   3.112   0.899 -0.3301 -0.1676  1.3858
   15CHTO   O22 6224   6.355   3.306   0.586  0.6894 -0.3866  0.5768
   15CHTO   C31 6225   6.354   3.447   0.553 -0.5205 -0.0562 -0.0100
   15CHTO   H59 6226   6.379   3.452   0.445 -0.1635 -3.9964 -0.1607
   15CHTO   C29 6227   6.220   3.521   0.571 -0.5452 -0.5715 -0.0320
   15CHTO   H57 6228   6.206   3.508   0.680  1.5604 -4.3647 -0.1147
   15CHTO   O21 6229   6.116   3.456   0.494 -0.7658 -0.3703 -0.1254
   15CHTO   H37 6230   6.045   3.514   0.477 -3.1042 -3.0025  0.1926
   15CHTO   C27 6231   6.237   3.675   0.541 -0.2083  0.5068 -0.7561
   15CHTO   H55 6232   6.258   3.691   0.434  1.1402 -2.0082 -0.9043
   15CHTO    N5 6233   6.111   3.744   0.580 -0.5772 -0.9133 -0.5592
   15CHTO   H43 6234   6.037   3.716   0.507 -1.9078  1.2635 -0.1120
   15CHTO   H44 6235   6.085   3.714   0.681  0.5312  0.0111  0.0239
   15CHTO   C25 6236   6.371   3.735   0.609  0.3433  0.2230  0.3241
   15CHTO   H53 6237   6.368   3.738   0.719  2.8277  0.1552  0.4293
   15CHTO   O17 6238   6.486   3.657   0.573 -0.1374  0.2062 -0.1267
   15CHTO   C32 6239   6.474   3.521   0.619  0.5763 -0.2110  0.4752
   15CHTO   H60 6240   6.460   3.522   0.727  0.9622 -2.1502  0.5633
   15CHTO   C36 6241   6.612   3.446   0.594 -0.2297  0.9435 -0.0552
   15CHTO   O25 6242   6.714   3.484   0.681  0.1518  0.2023  0.3682
   15CHTO   H40 6243   6.796   3.489   0.635 -0.2279 -0.5873 -0.4032
   15CHTO   O15 6244   6.410   3.869   0.559 -0.0596  0.0393 -0.5248
   15CHTO   C19 6245   6.437   4.002   0.611 -0.7504 -0.5917 -0.3217
   15CHTO   H47 6246   6.494   4.049   0.530  2.5377 -0.9956  1.6907
   15CHTO   C20 6247   6.307   4.084   0.641  0.2858  0.4779 -0.7149
   15CHTO   H48 6248   6.242   4.039   0.717  1.2548 -0.8187 -0.6342
   15CHTO   O19 6249   6.222   4.075   0.523 -0.3114 -0.4087  0.5223
   15CHTO   H35 6250   6.132   4.059   0.542 -0.3320  0.7280  1.4502
   15CHTO   C21 6251   6.355   4.230   0.691 -0.7563  0.0519 -0.2120
   15CHTO   H49 6252   6.418   4.277   0.615 -0.5899  0.7372  0.3465
   15CHTO    N4 6253   6.238   4.318   0.718 -0.2624  0.1310  0.2305
   15CHTO   H41 6254   6.216   4.387   0.638  1.0945 -0.6585 -0.8388
   15CHTO   H42 6255   6.149   4.259   0.732  1.1287 -1.9455  0.4753
   15CHTO   C22 6256   6.452   4.212   0.815  0.5444 -0.0830 -0.3513
   15CHTO   H50 6257   6.401   4.168   0.900  1.1885  0.3132  0.2388
   15CHTO   O14 6258   6.565   4.137   0.771  0.4220 -0.1186  0.4931
   15CHTO   C23 6259   6.529   4.003   0.736 -0.5815  0.6094 -0.4573
   15CHTO   H51 6260   6.479   3.962   0.825  1.0317  2.7354  1.4764
   15CHTO   C34 6261   6.658   3.918   0.723  0.3409 -0.6164 -0.8359
   15CHTO   O23 6262   6.756   3.990   0.647  0.0700  0.6034  0.2302
   15CHTO   H38 6263   6.719   4.025   0.568  1.3022  1.6622  0.1089
   15CHTO   O16 6264   6.499   4.343   0.855  0.5084 -0.3963  0.3956
   15CHTO   C24 6265   6.509   4.364   1.015  0.0881  0.0522 -0.0881
   15CHTO   H52 6266   6.518   4.267   1.065  1.5206  0.6056  0.7580
   15CHTO   C26 6267   6.386   4.446   1.065  0.3833 -0.0163  0.1668
   15CHTO   H54 6268   6.379   4.539   1.003 -2.8814 -0.0787  0.3530
   15CHTO   O20 6269   6.262   4.373   1.035 -0.1348  0.0622 -0.3963
   15CHTO   H36 6270   6.189   4.419   1.071  1.1333  2.9537 -1.3962
   15CHTO   C30 6271   6.404   4.478   1.220  0.4465  0.0553  0.1120
   15CHTO   H58 6272   6.386   4.386   1.279  1.9179  0.8561  1.8585
   15CHTO    N6 6273   6.296   4.570   1.254  0.2310 -0.4053  0.4864
   15CHTO   H45 6274   6.271   4.626   1.165  1.0033  0.0317  0.5345
   15CHTO   H46 6275   6.206   4.520   1.285 -1.8133  1.7684 -1.7034
   15CHTO   C33 6276   6.550   4.533   1.252 -0.6877 -0.0050 -0.0685
   15CHTO   H61 6277   6.566   4.636   1.219  1.8306 -0.6315 -0.8502
   15CHTO   O18 6278   6.649   4.458   1.183 -0.2658 -0.0407  0.2201
   15CHTO   C28 6279   6.642   4.435   1.042 -0.2855 -0.4461 -0.0149
   15CHTO   H56 6280   6.641   4.525   0.981  0.5734 -0.5777 -0.2284
   15CHTO   C35 6281   6.757   4.355   0.986 -0.1231  0.4026 -0.0650
   15CHTO   O24 6282   6.761   4.211   1.015  0.2832  0.3182 -0.0499
   15CHTO   H39 6283   6.796   4.160   0.944 -0.3002  2.3506 -1.8666
   15CHTO    O9 6284   6.573   4.535   1.395 -0.3228  0.1277 -0.3924
   15CHTO   C13 6285   6.671   4.447   1.457  0.1088 -0.0519  0.2311
   15CHTO   H26 6286   6.771   4.459   1.409  0.5273 -1.6679  0.6816
   15CHTO   C11 6287   6.630   4.292   1.458  1.1344 -0.6024  0.2923
   15CHTO   H24 6288   6.605   4.258   1.356  0.9677 -0.3057  0.2342
   15CHTO    O8 6289   6.510   4.288   1.537 -0.6293  0.0490 -0.7557
   15CHTO    H3 6290   6.516   4.215   1.596  0.8020 -0.4846 -1.5486
   15CHTO    C9 6291   6.749   4.209   1.524 -0.3768 -0.1236 -0.0619
   15CHTO   H22 6292   6.824   4.204   1.445  1.5090 -2.1321  1.7799
   15CHTO    N2 6293   6.728   4.062   1.548  0.1723  0.1051 -0.0500
   15CHTO   H10 6294   6.626   4.029   1.553 -0.2318  1.2109 -0.8059
   15CHTO   H11 6295   6.796   4.036   1.628 -0.8800 -1.3105  0.3992
   15CHTO    C7 6296   6.818   4.289   1.647  0.0338  0.2048  0.1391
   15CHTO   H20 6297   6.912   4.331   1.605 -0.9766  1.8744 -0.4910
   15CHTO    O4 6298   6.736   4.400   1.693 -0.1091  0.0109  0.0098
   15CHTO   C14 6299   6.700   4.507   1.602  0.0738 -0.7445  0.1758
   15CHTO   H27 6300   6.786   4.578   1.593 -0.8285  0.3771  0.3100
   15CHTO   C18 6301   6.585   4.591   1.654 -0.0906  0.3618  0.0051
   15CHTO   O13 6302   6.625   4.682   1.762 -0.0298  0.5624  0.3248
   15CHTO    H7 6303   6.569   4.736   1.815 -0.0605 -0.3442  1.2579
   15CHTO    O2 6304   6.869   4.200   1.791 -0.2932 -0.0472  0.0220
   15CHTO    C1 6305   7.010   4.200   1.815 -0.1950  0.5671  0.4816
   15CHTO   H14 6306   7.055   4.294   1.776 -0.0511  0.3623  0.1595
   15CHTO    C2 6307   7.095   4.084   1.739 -0.4814 -0.8454  0.0184
   15CHTO   H15 6308   7.040   3.991   1.759 -1.4866 -0.8059 -2.3870
   15CHTO    O6 6309   7.082   4.112   1.600  0.1663 -0.8974  0.2182
   15CHTO    H1 6310   7.010   4.066   1.562  0.5136 -2.1290  1.0475
   15CHTO    C3 6311   7.248   4.077   1.782  0.5629 -0.2329  0.2208
   15CHTO   H16 6312   7.310   4.162   1.749  1.7623 -1.0005  0.4713
   15CHTO    N1 6313   7.304   3.943   1.723  0.3643  0.3265  0.0313
   15CHTO    H8 6314   7.335   3.966   1.622  1.0554  0.0580  0.1808
   15CHTO    H9 6315   7.388   3.912   1.784  0.3024 -0.3354 -0.2145
   15CHTO    C4 6316   7.245   4.083   1.939 -0.9487  0.2880  0.6184
   15CHTO   H17 6317   7.197   3.994   1.980  0.5864  0.6303  3.2192
   15CHTO    O1 6318   7.179   4.195   1.987  0.3315  0.3697 -0.0370
   15CHTO    C5 6319   7.035   4.189   1.967  0.5840 -0.5530  0.7215
   15CHTO   H18 6320   6.990   4.097   2.006 -1.2509 -0.6480 -1.5504
   15CHTO   C16 6321   6.983   4.307   2.041 -0.5494  0.0111  0.4412
   15CHTO   O11 6322   6.842   4.322   2.040 -0.4738 -0.5664  0.1693
   15CHTO    H5 6323   6.788   4.276   2.101 -0.0181  0.4521  1.3836
   15CHTO    O3 6324   7.382   4.082   1.997 -0.1806  0.0715  0.0440
   15CHTO    C6 6325   7.395   4.034   2.140 -0.2816 -0.5025 -0.2759
   15CHTO   H19 6326   7.304   4.004   2.191 -1.7792  0.8877 -2.0293
   15CHTO    C8 6327   7.479   3.902   2.134 -0.0543  0.2270 -0.1007
   15CHTO   H21 6328   7.569   3.920   2.076  1.4330  1.8735  2.6353
   15CHTO    O7 6329   7.401   3.803   2.064  0.9830 -0.0114 -0.8324
   15CHTO    H2 6330   7.372   3.835   1.981 -0.4142  1.9052  0.3615
   15CHTO   C12 6331   7.526   3.860   2.283  0.2148  0.2010 -0.0913
   15CHTO   H25 6332   7.430   3.840   2.336  1.4188 -0.3968  1.8874
   15CHTO    N3 6333   7.598   3.725   2.287  0.3610  0.2344  0.2216
   15CHTO   H12 6334   7.546   3.639   2.327 -0.4284  1.0304  0.9395
   15CHTO   H13 6335   7.649   3.698   2.196 -0.8412 -1.4368  0.0286
   15CHTO   C15 6336   7.603   3.978   2.337 -0.1328  0.4135  0.3659
   15CHTO   H28 6337   7.689   4.001   2.275 -0.1556  0.7719  0.4663
   15CHTO   O10 6338   7.650   3.975   2.492  0.4016 -0.2940 -0.3028
   15CHTO    H4 6339   7.733   3.932   2.497  0.5519  0.0239 -0.0608
   15CHTO    O5 6340   7.508   4.090   2.346 -0.5512  0.6393  0.2285
   15CHTO   C10 6341   7.466   4.147   2.224 -0.5059 -0.2080 -0.0239
   15CHTO   H23 6342   7.547   4.177   2.159 -1.2988 -0.8635 -1.3339
   15CHTO   C17 6343   7.385   4.272   2.269  0.5159  0.5882 -0.6806
   15CHTO   O12 6344   7.268   4.235   2.335 -0.4097 -0.1982  0.1215
   15CHTO    H6 6345   7.228   4.306   2.382 -0.3446 -0.4788  0.6129
   16CHTO  H203 6346   5.497   3.642   0.554  0.5676  0.8652 -0.1059
   16CHTO   O82 6347   5.496   3.666   0.645  0.2063 -0.3900  0.2300
   16CHTO  C123 6348   5.626   3.699   0.704 -0.5393 -0.3710  1.0004
   16CHTO  H227 6349   5.705   3.667   0.634  0.9340  1.0591  1.9578
   16CHTO   O77 6350   5.615   3.846   0.732 -0.0873 -0.2013 -0.0338
   16CHTO  C118 6351   5.726   3.893   0.802 -0.5531 -0.0630 -0.3019
   16CHTO  H222 6352   5.811   3.865   0.738 -0.2227  2.4470 -0.9980
   16CHTO  C125 6353   5.709   4.046   0.806 -0.7400 -0.1171  0.3006
   16CHTO   O84 6354   5.596   4.091   0.879  0.0379 -0.4073  0.2836
   16CHTO  H205 6355   5.516   4.079   0.831  0.9505  0.9547 -1.6444
   16CHTO  C114 6356   5.743   3.840   0.945  0.4170 -0.0029  0.3778
   16CHTO  H218 6357   5.648   3.858   0.995 -0.6083 -1.0372 -1.1377
   16CHTO  C116 6358   5.752   3.678   0.934  0.0582  0.2854  0.0325
   16CHTO  H220 6359   5.854   3.663   0.895  0.5871 -1.1830  1.8784
   16CHTO   O79 6360   5.746   3.620   1.064 -0.1883 -0.0795  0.0918
   16CHTO  H201 6361   5.828   3.589   1.095  0.2437  0.4080 -0.5428
   16CHTO  C120 6362   5.639   3.619   0.835 -0.2676 -0.2810 -0.2790
   16CHTO  H224 6363   5.542   3.625   0.888  1.4170  0.6037  2.8060
   16CHTO   N21 6364   5.669   3.470   0.816 -0.2786  0.0511 -0.0229
   16CHTO  H211 6365   5.737   3.461   0.733  1.2781  1.2872  1.0778
   16CHTO  H212 6366   5.577   3.417   0.800 -0.5293 -0.6687  3.3797
   16CHTO   O75 6367   5.854   3.915   1.008  0.0744  0.4417  0.4962
   16CHTO  C112 6368   6.004   3.878   0.982 -0.3678 -0.3179 -0.5478
   16CHTO  H216 6369   6.017   3.883   0.873 -1.3488 -0.2664 -0.6636
   16CHTO   O73 6370   6.033   3.750   1.036 -0.6333  0.5957  0.2952
   16CHTO  C113 6371   6.170   3.703   0.997  0.2473  0.6100  0.0191
   16CHTO  H217 6372   6.184   3.720   0.888 -0.7034  1.1101 -0.0266
   16CHTO  C124 6373   6.184   3.549   1.030  0.1850  0.0279 -0.3265
   16CHTO   O83 6374   6.106   3.474   0.948 -0.6636  0.0333  0.0225
   16CHTO  H204 6375   6.115   3.384   0.972  1.4306  0.1579 -0.1987
   16CHTO  C109 6376   6.272   3.792   1.074  0.4936  0.0534  0.9568
   16CHTO  H213 6377   6.252   3.775   1.181 -0.6858  2.9189  1.2541
   16CHTO  C110 6378   6.249   3.941   1.037  0.0658 -0.3435  0.3692
   16CHTO  H214 6379   6.265   3.949   0.930  0.0433 -2.3136  0.2011
   16CHTO   O78 6380   6.345   4.023   1.111  0.4857  0.5488  0.0766
   16CHTO  H200 6381   6.430   3.996   1.082 -0.7995 -2.9200 -0.7001
   16CHTO  C111 6382   6.100   3.982   1.058 -1.2804  0.1960  0.2107
   16CHTO  H215 6383   6.079   3.973   1.166  0.8109 -0.4012  0.5910
   16CHTO   N19 6384   6.067   4.123   1.019  0.1691  0.3612 -0.2605
   16CHTO  H207 6385   5.960   4.141   1.018 -0.3937 -2.6039  0.5581
   16CHTO  H208 6386   6.111   4.154   0.925 -1.5129 -0.4294 -1.3390
   16CHTO   O74 6387   6.411   3.772   1.036 -0.1831  0.7826 -0.6776
   16CHTO  C115 6388   6.499   3.663   1.097 -0.3828  0.9154  0.0327
   16CHTO  H219 6389   6.446   3.601   1.169  1.1975  0.2369  0.6487
   16CHTO   O76 6390   6.548   3.561   0.991  0.0641  0.3061  0.3081
   16CHTO  C122 6391   6.621   3.452   1.048  0.1590 -0.4104  0.1556
   16CHTO  H226 6392   6.662   3.393   0.966  0.9658  0.3020  0.0310
   16CHTO  C126 6393   6.531   3.347   1.127 -0.0550 -0.2939  0.3279
   16CHTO   O85 6394   6.408   3.314   1.054 -0.0967 -0.0062 -0.3249
   16CHTO  H206 6395   6.439   3.259   0.985 -0.1304 -1.6962  0.9711
   16CHTO  C121 6396   6.747   3.498   1.140  0.0273  0.5967  0.7819
   16CHTO  H225 6397   6.775   3.410   1.201 -1.9208 -1.4476 -1.1383
   16CHTO   O81 6398   6.862   3.540   1.060  0.4844  0.6443 -0.1311
   16CHTO  H202 6399   6.914   3.474   1.018 -0.8758 -1.3369  1.2013
   16CHTO  C119 6400   6.707   3.613   1.237 -0.2479 -0.5181 -1.0965
   16CHTO  H223 6401   6.641   3.563   1.308  0.8131  1.6278  1.4804
   16CHTO  C117 6402   6.629   3.729   1.165 -0.1087 -0.2005 -0.4003
   16CHTO  H221 6403   6.682   3.776   1.083 -0.4823 -0.4032 -0.7601
   16CHTO   N20 6404   6.593   3.839   1.254  0.3388  0.3608  0.0372
   16CHTO  H209 6405   6.680   3.902   1.265  1.3091 -1.2729  2.0754
   16CHTO  H210 6406   6.570   3.797   1.351  0.1269  0.3090 -0.0352
   16CHTO   O80 6407   6.844   3.663   1.346 -0.2195  0.5533 -0.5882
   16CHTO  C103 6408   6.907   3.560   1.442  0.3101 -0.0686 -0.0171
   16CHTO  H190 6409   6.869   3.461   1.417 -1.3104  0.8032 -1.1029
   16CHTO  C101 6410   7.064   3.550   1.428  0.4572 -0.4604 -1.2738
   16CHTO  H188 6411   7.105   3.647   1.455 -2.9313 -0.2339  3.9116
   16CHTO   O68 6412   7.108   3.499   1.289 -0.3496  0.4558  0.3537
   16CHTO  H168 6413   7.078   3.564   1.227 -0.4427  0.2715  0.2056
   16CHTO   C99 6414   7.106   3.441   1.542  0.6312 -0.1286  0.6414
   16CHTO  H186 6415   7.067   3.338   1.528 -1.4123  0.6947  0.0217
   16CHTO   N17 6416   7.258   3.425   1.561 -0.7673 -0.2578 -0.2168
   16CHTO  H174 6417   7.290   3.468   1.655 -3.3224  1.4155 -0.0487
   16CHTO  H175 6418   7.279   3.319   1.556  0.5800  0.0908 -2.2203
   16CHTO   C97 6419   7.049   3.484   1.682 -0.1787  0.4183 -0.1092
   16CHTO  H184 6420   7.092   3.582   1.708 -0.1176  0.3428  0.0789
   16CHTO   O64 6421   6.910   3.488   1.672  0.5765  0.3525  0.0160
   16CHTO  C104 6422   6.859   3.594   1.586 -0.2008  0.2093 -0.2205
   16CHTO  H191 6423   6.906   3.689   1.610  1.3129 -0.2898 -1.1264
   16CHTO  C108 6424   6.703   3.605   1.599 -0.5525 -0.9215 -0.2216
   16CHTO   O71 6425   6.669   3.642   1.736  0.1289  0.1043  0.5761
   16CHTO  H171 6426   6.669   3.734   1.753 -0.8158  0.2570 -0.2285
   16CHTO   O62 6427   7.081   3.384   1.779  0.1353  0.1495  0.4030
   16CHTO   C91 6428   7.106   3.438   1.911  0.8641 -0.4508 -0.2164
   16CHTO  H178 6429   7.184   3.510   1.886 -0.1184 -0.4615 -3.6075
   16CHTO   C92 6430   7.166   3.320   1.990  0.1128  0.1348 -1.2805
   16CHTO  H179 6431   7.128   3.227   1.945  2.3478 -1.3930 -0.1376
   16CHTO   O66 6432   7.309   3.299   1.972 -0.6264 -0.3616  0.5511
   16CHTO  H166 6433   7.328   3.299   1.880  0.9596 -0.4859  0.8593
   16CHTO   C93 6434   7.130   3.320   2.148 -0.0743 -0.6422  0.4654
   16CHTO  H180 6435   7.185   3.398   2.203 -1.0678 -0.1405  0.7690
   16CHTO   N16 6436   7.163   3.191   2.209  0.3093  0.4608 -0.0513
   16CHTO  H172 6437   7.127   3.188   2.311 -0.5716  1.5476 -0.3116
   16CHTO  H173 6438   7.270   3.177   2.213  0.5300  2.1788  0.8497
   16CHTO   C94 6439   6.979   3.352   2.148  0.1339 -0.4868  0.1238
   16CHTO  H181 6440   6.925   3.296   2.072 -0.4046 -0.3255  0.3863
   16CHTO   O61 6441   6.965   3.491   2.119 -0.3836 -0.3999 -0.3034
   16CHTO   C95 6442   6.984   3.512   1.981 -0.3098  0.0610  0.1535
   16CHTO  H182 6443   6.890   3.483   1.935 -0.7321 -0.5587  1.3767
   16CHTO  C106 6444   6.982   3.662   1.955  0.5147 -0.1150  0.1317
   16CHTO   O69 6445   7.081   3.732   2.031 -0.2597 -0.0916 -0.3412
   16CHTO  H169 6446   7.136   3.678   2.084 -1.5928 -0.5269  0.6461
   16CHTO   O63 6447   6.907   3.326   2.293 -0.5286  0.2336 -0.6495
   16CHTO   C96 6448   6.829   3.202   2.317 -0.0184 -0.2527  0.1221
   16CHTO  H183 6449   6.902   3.122   2.329 -1.4010 -1.3057  1.7695
   16CHTO   C98 6450   6.725   3.161   2.203 -0.0645  0.0894  0.9007
   16CHTO  H185 6451   6.772   3.148   2.105 -1.0287 -0.0868  0.4526
   16CHTO   O67 6452   6.662   3.028   2.236  0.4500  0.0636 -0.0973
   16CHTO  H167 6453   6.607   3.002   2.164  2.1157 -2.1478 -0.6530
   16CHTO  C102 6454   6.605   3.267   2.185  0.0874 -0.6228 -0.8728
   16CHTO  H189 6455   6.518   3.205   2.157 -1.5755  0.1024  2.4913
   16CHTO   N18 6456   6.621   3.365   2.080 -0.0345  0.0396  0.3691
   16CHTO  H176 6457   6.662   3.460   2.111 -0.0451  0.8923 -2.0955
   16CHTO  H177 6458   6.527   3.381   2.029 -0.8263 -1.5951  1.2571
   16CHTO  C105 6459   6.563   3.319   2.326  0.2703 -0.7738  0.1163
   16CHTO  H192 6460   6.608   3.417   2.337 -0.3131 -0.2086 -2.1909
   16CHTO   O65 6461   6.600   3.232   2.434 -0.2468  0.3330  0.2106
   16CHTO  C100 6462   6.744   3.223   2.452 -0.1474  0.0324 -0.3369
   16CHTO  H187 6463   6.779   3.314   2.505 -0.0571 -1.0491  1.5134
   16CHTO  C107 6464   6.775   3.111   2.547  0.6334  0.2343 -0.0148
   16CHTO   O70 6465   6.775   3.155   2.681  0.2036  0.3981 -0.3135
   16CHTO  H170 6466   6.864   3.172   2.704  0.0138  0.8873  0.0643
   16CHTO   O57 6467   6.397   3.335   2.324  0.2816 -0.1452  0.3000
   16CHTO   C85 6468   6.322   3.453   2.368 -0.4040 -0.1720  0.1912
   16CHTO  H157 6469   6.361   3.524   2.292  1.6201 -0.0999  1.2676
   16CHTO   C83 6470   6.373   3.506   2.509  0.0754 -0.3783 -0.2815
   16CHTO  H155 6471   6.473   3.548   2.508  0.0042 -0.0188  2.6047
   16CHTO   O56 6472   6.386   3.401   2.611 -0.1718  0.1525 -0.0313
   16CHTO  H135 6473   6.451   3.430   2.673 -0.5143  0.3830  0.2257
   16CHTO   C81 6474   6.280   3.624   2.559 -0.2857  0.0421  0.2313
   16CHTO  H153 6475   6.283   3.705   2.486  1.1379 -0.4122 -0.2333
   16CHTO   N14 6476   6.321   3.683   2.688  0.6133  0.0293 -0.2619
   16CHTO  H141 6477   6.427   3.695   2.681  0.8300 -2.5739 -1.9465
   16CHTO  H142 6478   6.279   3.777   2.718 -1.0011  0.0866 -2.5832
   16CHTO   C79 6479   6.130   3.581   2.565 -0.0608 -0.2351 -0.0818
   16CHTO  H151 6480   6.074   3.673   2.583  1.1121  0.4079  0.3606
   16CHTO   O52 6481   6.085   3.525   2.436 -0.4056  0.4344 -0.1107
   16CHTO   C86 6482   6.167   3.427   2.364  0.1323  0.3093  0.2965
   16CHTO  H158 6483   6.149   3.333   2.420 -0.4160  1.2078  1.6693
   16CHTO   C90 6484   6.114   3.404   2.226 -0.6156 -0.1313 -0.1918
   16CHTO   O60 6485   5.972   3.387   2.230  0.0812 -0.3872 -0.4430
   16CHTO  H138 6486   5.963   3.312   2.175 -2.1731 -0.1652 -0.4148
   16CHTO   O50 6487   6.093   3.484   2.666  0.0608  0.3805 -0.1867
   16CHTO   C73 6488   6.010   3.390   2.735  0.8594 -0.4787  0.7808
   16CHTO  H145 6489   6.073   3.334   2.807  0.1696  0.5669  2.2234
   16CHTO   C74 6490   5.952   3.284   2.626 -0.1681 -0.7085 -0.0410
   16CHTO  H146 6491   6.030   3.254   2.555 -0.4818  0.8377 -1.0832
   16CHTO   O54 6492   5.918   3.164   2.697 -0.3148  0.0415 -0.3082
   16CHTO  H133 6493   5.916   3.089   2.641 -0.6880  0.0160 -0.2617
   16CHTO   C75 6494   5.831   3.349   2.557  0.1026 -0.4319  0.6777
   16CHTO  H147 6495   5.866   3.418   2.478  0.7706  0.4785  1.7610
   16CHTO   N13 6496   5.742   3.254   2.474 -0.1137  0.1449  0.4460
   16CHTO  H139 6497   5.807   3.190   2.416  1.2801  1.5107  0.4857
   16CHTO  H140 6498   5.669   3.304   2.412  0.6730  1.1678  0.3463
   16CHTO   C76 6499   5.736   3.437   2.654  0.8463 -0.9191 -0.1991
   16CHTO  H148 6500   5.677   3.370   2.716  1.8238 -1.0017  0.6380
   16CHTO   O49 6501   5.818   3.532   2.728  0.4790 -0.0415  0.3937
   16CHTO   C77 6502   5.908   3.464   2.816 -0.4025  0.9594 -0.1392
   16CHTO  H149 6503   5.849   3.392   2.872  1.9974 -1.7743 -0.9568
   16CHTO   C88 6504   5.967   3.561   2.927 -0.1028  0.0152  0.0340
   16CHTO   O58 6505   6.039   3.492   3.033  0.2404 -0.5628 -0.2343
   16CHTO  H136 6506   5.965   3.462   3.083  0.0026 -0.0603 -0.2909
   16CHTO   O51 6507   5.647   3.521   2.564  0.2328  0.0230  0.5869
   16CHTO   C78 6508   5.580   3.658   2.648  0.2736 -0.3732  0.3311
   16CHTO  H150 6509   5.628   3.672   2.748 -2.7755  2.4394  1.5038
   16CHTO   C80 6510   5.426   3.642   2.664  0.0290 -0.6580  0.6484
   16CHTO  H152 6511   5.378   3.615   2.568  0.2560 -2.1143  0.9336
   16CHTO   O55 6512   5.386   3.522   2.740 -0.5846 -0.2167 -0.4479
   16CHTO  H134 6513   5.460   3.487   2.787 -1.7155 -0.4954  1.1506
   16CHTO   C84 6514   5.356   3.772   2.725  0.4479 -0.5282  0.9269
   16CHTO  H156 6515   5.393   3.781   2.827 -1.3953  1.8845  1.4499
   16CHTO   N15 6516   5.207   3.765   2.744  0.0100  0.1785  0.7773
   16CHTO  H143 6517   5.172   3.861   2.774 -1.2106  0.0452 -0.1572
   16CHTO  H144 6518   5.158   3.740   2.652 -1.4833  0.2422  1.5489
   16CHTO   C87 6519   5.392   3.903   2.647 -0.2486  0.1955 -0.4121
   16CHTO  H159 6520   5.336   3.902   2.553 -0.2776  0.0251 -0.3927
   16CHTO   O53 6521   5.561   3.897   2.625 -0.0673 -0.0000  0.0231
   16CHTO   C82 6522   5.618   3.779   2.558  0.5181  0.8427 -0.3581
   16CHTO  H154 6523   5.569   3.760   2.462  0.0464 -2.9878  0.5704
   16CHTO   C89 6524   5.768   3.803   2.528 -0.2699  0.4066 -0.4835
   16CHTO   O59 6525   5.852   3.799   2.637 -0.3626 -0.0009 -0.4132
   16CHTO  H137 6526   5.847   3.882   2.680 -1.6722  1.1531 -2.6699
   16CHTO   O45 6527   5.343   4.046   2.743 -0.0701 -0.2925  0.0484
   16CHTO   C67 6528   5.448   4.139   2.754 -0.0730 -0.1318 -0.2895
   16CHTO  H124 6529   5.540   4.104   2.708  0.7101  1.1078  0.3030
   16CHTO   C65 6530   5.412   4.273   2.678  0.4543  0.2361  0.0971
   16CHTO  H122 6531   5.303   4.275   2.672  0.4109  2.5659  1.0944
   16CHTO   O44 6532   5.461   4.269   2.542  0.4023  0.0863 -1.0065
   16CHTO  H102 6533   5.448   4.346   2.491 -0.7144  0.9754  0.5724
   16CHTO   C63 6534   5.454   4.403   2.765 -0.3976 -0.2392 -0.3665
   16CHTO  H120 6535   5.385   4.398   2.850 -1.0780 -1.6202 -0.9818
   16CHTO   N11 6536   5.426   4.536   2.708 -0.0433  0.8443  0.2072
   16CHTO  H108 6537   5.393   4.529   2.607  1.4507 -0.1186 -0.2198
   16CHTO  H109 6538   5.355   4.592   2.766  0.4999  1.4927  0.2482
   16CHTO   C61 6539   5.601   4.380   2.813  0.3978 -0.0173  0.9124
   16CHTO  H118 6540   5.631   4.467   2.872 -1.6093  1.6075 -0.3722
   16CHTO   O40 6541   5.617   4.260   2.900 -0.2087 -0.3311 -0.3350
   16CHTO   C68 6542   5.497   4.169   2.904  0.0889 -0.9869  0.3822
   16CHTO  H125 6543   5.417   4.213   2.967  0.3903  3.1960 -2.0300
   16CHTO   C72 6544   5.550   4.045   2.976  0.1946 -0.1574  0.1805
   16CHTO   O48 6545   5.437   3.968   3.032 -0.1186  0.1938 -0.3862
   16CHTO  H105 6546   5.451   3.876   3.023 -2.4296 -0.4524  1.8920
   16CHTO   O38 6547   5.690   4.379   2.696 -0.1673 -0.9125 -0.3951
   16CHTO   C55 6548   5.830   4.391   2.720 -0.2843 -0.5245 -0.2465
   16CHTO  H112 6549   5.846   4.361   2.824 -0.4740 -1.3676 -0.4559
   16CHTO   C56 6550   5.885   4.536   2.685 -0.6257  0.1753 -0.2291
   16CHTO  H113 6551   5.845   4.548   2.583 -0.9825 -3.5874 -0.5860
   16CHTO   O42 6552   5.820   4.624   2.774 -0.6412 -0.1045  0.3823
   16CHTO  H100 6553   5.854   4.711   2.764 -1.5324  0.2176  0.0443
   16CHTO   C57 6554   6.043   4.543   2.681 -0.1097 -0.2579  0.2647
   16CHTO  H114 6555   6.063   4.540   2.788 -0.2803 -0.3190  0.2950
   16CHTO   N10 6556   6.091   4.672   2.622  0.2688  0.1824  0.0008
   16CHTO  H106 6557   6.123   4.735   2.703  0.9856  0.3602 -0.4215
   16CHTO  H107 6558   6.175   4.660   2.556  0.9043  2.0003  0.4526
   16CHTO   C58 6559   6.108   4.421   2.617  0.1683 -0.2951  0.7486
   16CHTO  H115 6560   6.101   4.432   2.506  2.8344  0.0002  0.5930
   16CHTO   O37 6561   6.052   4.298   2.661  0.3385  0.1822  0.4278
   16CHTO   C59 6562   5.910   4.283   2.639 -0.9582  0.5215 -0.0514
   16CHTO  H116 6563   5.889   4.283   2.532  1.4164  2.2398 -0.5684
   16CHTO   C70 6564   5.867   4.143   2.681  0.1322 -0.6652 -0.0090
   16CHTO   O46 6565   5.930   4.080   2.796  0.2272 -0.1280 -0.5981
   16CHTO  H103 6566   5.895   3.995   2.811 -1.2372  0.5246 -0.1595
   16CHTO   O39 6567   6.277   4.413   2.642  0.6414  0.0582 -0.0818
   16CHTO   C60 6568   6.341   4.357   2.527  0.6062 -0.2920 -0.8436
   16CHTO  H117 6569   6.270   4.314   2.456 -0.7676  0.0282  0.3175
   16CHTO   C62 6570   6.421   4.465   2.459 -0.9121  0.2416 -0.0486
   16CHTO  H119 6571   6.363   4.558   2.443  1.1768  1.5332 -0.4142
   16CHTO   O43 6572   6.535   4.501   2.535  0.0856 -0.6251 -0.2070
   16CHTO  H101 6573   6.533   4.592   2.558  0.0672 -0.6206 -0.2264
   16CHTO   C66 6574   6.482   4.392   2.326  0.4899 -1.4213  0.0852
   16CHTO  H123 6575   6.402   4.336   2.277  0.4118 -0.8451 -0.4573
   16CHTO   N12 6576   6.544   4.475   2.220  0.4829 -0.3438 -0.0229
   16CHTO  H110 6577   6.632   4.425   2.183 -0.9902 -2.9796 -0.0654
   16CHTO  H111 6578   6.563   4.576   2.253  1.7185 -0.1231 -1.3333
   16CHTO   C69 6579   6.578   4.279   2.366  0.5569  0.6085  0.9174
   16CHTO  H126 6580   6.673   4.315   2.409 -0.3637  1.4126  2.3347
   16CHTO   O41 6581   6.497   4.174   2.465 -0.1476 -0.3698  0.2802
   16CHTO   C64 6582   6.434   4.249   2.586  0.5154  0.2718 -0.0457
   16CHTO  H121 6583   6.509   4.292   2.654 -0.2281  1.7663 -0.1639
   16CHTO   C71 6584   6.344   4.146   2.674 -0.6448  0.1168 -0.1384
   16CHTO   O47 6585   6.434   4.059   2.743 -0.5268 -0.7427  0.3227
   16CHTO  H104 6586   6.391   3.976   2.747  0.4685 -1.1877  2.5027
   16CHTO   O34 6587   6.625   4.187   2.238  0.0749  0.0167  0.2561
   16CHTO   C49 6588   6.745   4.094   2.224 -1.0986  0.4099  0.0100
   16CHTO   H91 6589   6.826   4.145   2.172  0.3464 -2.5425 -0.6911
   16CHTO   C47 6590   6.711   3.960   2.164 -0.0760  0.0845  0.7850
   16CHTO   H89 6591   6.806   3.911   2.134  0.0959  0.9589 -0.1211
   16CHTO   O33 6592   6.642   3.990   2.042 -0.1572 -0.2446 -0.0631
   16CHTO   H70 6593   6.682   4.045   1.978  0.0325  0.5196  0.7148
   16CHTO   C45 6594   6.622   3.865   2.253  0.0630  0.4402 -0.6604
   16CHTO   H87 6595   6.526   3.917   2.263  0.5226  0.9592  1.2500
   16CHTO    N8 6596   6.598   3.736   2.178  0.5419  0.5137 -0.2460
   16CHTO   H75 6597   6.492   3.717   2.180  0.7403 -0.5794  0.1345
   16CHTO   H76 6598   6.648   3.652   2.224 -1.3441  0.8215  2.5393
   16CHTO   C43 6599   6.683   3.847   2.397  0.7290  0.9751  0.2489
   16CHTO   H85 6600   6.607   3.796   2.457  1.5106  0.1190  0.5274
   16CHTO   O29 6601   6.723   3.974   2.454  0.4558  0.7386  0.1100
   16CHTO   C50 6602   6.797   4.063   2.365  0.3789  0.4310  0.1770
   16CHTO   H92 6603   6.793   4.151   2.432  0.3464 -0.3464  1.2120
   16CHTO   C54 6604   6.951   4.033   2.359  0.3225  0.2840 -0.1061
   16CHTO   O36 6605   7.025   4.044   2.485 -0.2007  0.2384  0.8362
   16CHTO   H72 6606   7.108   4.006   2.463 -1.0896 -1.3435  0.1218
   16CHTO   O27 6607   6.788   3.748   2.398 -0.2269 -0.1309 -0.1990
   16CHTO   C37 6608   6.859   3.716   2.519 -0.0633  0.0138  0.3379
   16CHTO   H79 6609   6.904   3.810   2.555 -0.9393  0.5184  0.1264
   16CHTO   C38 6610   6.765   3.657   2.628  0.1409  1.0175 -0.1660
   16CHTO   H80 6611   6.695   3.589   2.578 -0.4477  0.4859  1.3606
   16CHTO   O31 6612   6.690   3.763   2.687 -0.0515  0.4123  0.6474
   16CHTO   H68 6613   6.616   3.734   2.737  1.4772 -1.0674  2.1156
   16CHTO   C39 6614   6.840   3.570   2.741  0.2585  0.0343 -0.4417
   16CHTO   H81 6615   6.877   3.647   2.808 -0.3500  1.5347 -1.7972
   16CHTO    N7 6616   6.742   3.487   2.814  0.2132  0.4183  0.9488
   16CHTO   H73 6617   6.702   3.547   2.895  0.5692  1.1685  0.5789
   16CHTO   H74 6618   6.789   3.400   2.858  1.3313  0.6719  0.2659
   16CHTO   C40 6619   6.968   3.493   2.688  0.3079  0.6845  0.1782
   16CHTO   H82 6620   6.940   3.398   2.644  1.6866  0.4525 -0.2223
   16CHTO   O26 6621   7.048   3.573   2.602  0.0895  0.4001 -0.0822
   16CHTO   C41 6622   6.973   3.618   2.483  0.0461 -0.0893  0.7253
   16CHTO   H83 6623   6.937   3.535   2.420  0.0924 -0.7451  1.5583
   16CHTO   C52 6624   7.085   3.690   2.401 -0.2352  0.6507  0.8717
   16CHTO   O35 6625   7.199   3.603   2.377 -0.3474 -0.4167  0.2910
   16CHTO   H71 6626   7.274   3.657   2.362 -0.9626  0.1326 -0.8168
   16CHTO   O28 6627   7.067   3.461   2.787  0.3127 -0.1037 -0.2457
   16CHTO   C42 6628   7.123   3.329   2.801  0.0050  0.1946 -0.6029
   16CHTO   H84 6629   7.226   3.349   2.828 -0.7008  1.6145  1.1253
   16CHTO   C44 6630   7.123   3.235   2.677 -0.0393  0.3552  0.1609
   16CHTO   H86 6631   7.023   3.224   2.636  1.0833 -1.5669 -2.1772
   16CHTO   O32 6632   7.195   3.294   2.568 -0.2133 -0.2005 -0.3062
   16CHTO   H69 6633   7.274   3.328   2.605 -0.9401  1.3507 -0.1634
   16CHTO   C48 6634   7.173   3.090   2.713  0.1991 -0.2791 -0.1634
   16CHTO   H90 6635   7.273   3.114   2.749 -0.1188  1.8086 -0.6216
   16CHTO    N9 6636   7.192   2.999   2.592  0.3769 -0.2131 -0.4869
   16CHTO   H77 6637   7.170   2.896   2.614  1.8100 -0.5880 -0.7385
   16CHTO   H78 6638   7.288   3.018   2.546  1.1852 -1.0142  0.8507
   16CHTO   C51 6639   7.078   3.035   2.830 -0.0692  0.1199 -0.2266
   16CHTO   H93 6640   6.976   3.027   2.794 -0.7425  1.6185  1.3098
   16CHTO   O30 6641   7.096   3.123   2.945  0.2565  0.2786  0.4484
   16CHTO   C46 6642   7.057   3.247   2.926 -0.0076 -0.5365 -0.1185
   16CHTO   H88 6643   6.949   3.244   2.913 -0.3241  1.2708  1.7742
   16CHTO   C53 6644   7.069   3.321   3.063 -0.4618  0.3778 -0.0652
   16CHTO   O72 6645   7.010   3.449   3.079  0.5018  0.4623  0.3203
   16CHTO  H199 6646   6.918   3.438   3.095 -0.0304  3.2752 -0.4873
   16CHTO   O22 6647   7.118   2.910   2.881  0.1202 -0.1341  0.6049
   16CHTO   C31 6648   7.026   2.833   2.967 -0.4591  0.2043  0.0436
   16CHTO   H59 6649   7.091   2.749   2.999 -0.0066  0.2443 -0.7625
   16CHTO   C29 6650   6.971   2.899   3.098  0.8132 -0.2507 -0.0101
   16CHTO   H57 6651   6.906   2.982   3.068 -0.2704 -0.6734  1.1147
   16CHTO   O21 6652   7.091   2.930   3.175  0.0967  0.4125 -0.3353
   16CHTO   H37 6653   7.121   3.018   3.159  1.7458  0.0416  0.5934
   16CHTO   C27 6654   6.881   2.798   3.186 -0.7333 -0.3356  0.4570
   16CHTO   H55 6655   6.948   2.717   3.219  0.3088 -0.6581 -2.3196
   16CHTO    N5 6656   6.824   2.863   3.304 -0.3138 -0.1997 -0.1273
   16CHTO   H43 6657   6.716   2.863   3.309 -0.3258 -2.1832  0.1249
   16CHTO   H44 6658   6.867   2.818   3.393  1.0518 -2.4491 -1.8916
   16CHTO   C25 6659   6.770   2.743   3.089  0.3489  0.8748 -1.0473
   16CHTO   H53 6660   6.697   2.818   3.058 -0.9082  0.8681  1.7382
   16CHTO   O17 6661   6.837   2.691   2.970 -0.2565  0.5781  0.6712
   16CHTO   C32 6662   6.909   2.779   2.883 -0.6138 -0.0257 -0.4136
   16CHTO   H60 6663   6.854   2.864   2.842 -0.2430 -0.4648 -1.8371
   16CHTO   C36 6664   6.953   2.713   2.746  0.0247 -0.3129  0.2443
   16CHTO   O25 6665   7.050   2.609   2.772  0.1967 -0.0444  0.0530
   16CHTO   H40 6666   7.123   2.646   2.818 -0.9201  1.8086  0.4015
   16CHTO   O15 6667   6.695   2.621   3.159 -0.2469 -0.0405  0.1083
   16CHTO   C19 6668   6.554   2.587   3.184  0.6651  0.4030 -0.3316
   16CHTO   H47 6669   6.504   2.683   3.205 -1.2843 -1.0417  1.9343
   16CHTO   C20 6670   6.484   2.513   3.063 -0.6672  0.3258 -0.4804
   16CHTO   H48 6671   6.543   2.425   3.034  1.3252  1.9732 -1.4877
   16CHTO   O19 6672   6.500   2.607   2.958  0.5229 -0.0102 -0.0376
   16CHTO   H35 6673   6.441   2.680   2.953  3.7628  2.8134  0.6649
   16CHTO   C21 6674   6.328   2.488   3.094 -0.0099  0.7818 -0.7943
   16CHTO   H49 6675   6.280   2.585   3.112 -1.3144  0.4206 -2.3485
   16CHTO    N4 6676   6.256   2.420   2.987  0.5884  0.2778 -0.8623
   16CHTO   H41 6677   6.220   2.499   2.922 -0.7066 -0.4417 -1.0392
   16CHTO   H42 6678   6.312   2.347   2.931  3.0657  1.7833 -0.4304
   16CHTO   C22 6679   6.328   2.407   3.227  1.1599 -0.4403  0.1330
   16CHTO   H50 6680   6.377   2.312   3.206  1.2836 -0.1825 -0.7755
   16CHTO   O14 6681   6.395   2.477   3.337 -0.3478  0.4010  0.4434
   16CHTO   C23 6682   6.532   2.505   3.314  0.3571  0.2529  0.4640
   16CHTO   H51 6683   6.594   2.415   3.319  0.5206  0.2780 -0.9845
   16CHTO   C34 6684   6.579   2.576   3.439  0.2469  0.2904  0.8467
   16CHTO   O23 6685   6.714   2.544   3.465 -0.3424 -0.1209 -0.0536
   16CHTO   H38 6686   6.755   2.628   3.457  0.0181 -0.1624  1.3295
   16CHTO   O16 6687   6.190   2.389   3.273 -0.0459 -0.1031 -0.2103
   16CHTO   C24 6688   6.152   2.267   3.364 -0.7526  0.1857  0.2191
   16CHTO   H52 6689   6.240   2.211   3.397 -1.6689 -0.6926  1.2298
   16CHTO   C26 6690   6.062   2.174   3.285 -0.1110 -0.7369  0.1527
   16CHTO   H54 6691   5.977   2.234   3.245  0.6435 -0.7714 -1.5194
   16CHTO   O20 6692   6.127   2.111   3.169  0.2952 -0.0298 -0.0144
   16CHTO   H36 6693   6.122   2.165   3.093  0.6277  0.1317  0.0773
   16CHTO   C30 6694   6.010   2.059   3.378 -0.1795 -0.3923 -0.1529
   16CHTO   H58 6695   6.098   2.004   3.416  0.1473  1.3241  1.6852
   16CHTO    N6 6696   5.923   1.957   3.307 -0.8223  0.4549  0.2372
   16CHTO   H45 6697   5.991   1.886   3.261 -0.0561  0.9097  0.6555
   16CHTO   H46 6698   5.859   1.904   3.376 -1.6392  0.4076 -0.5486
   16CHTO   C33 6699   5.946   2.114   3.505  0.3734 -0.1798 -0.4038
   16CHTO   H61 6700   5.853   2.169   3.484 -0.4127 -1.2930  0.1435
   16CHTO   O18 6701   6.038   2.206   3.571  0.1893  0.0551  0.0366
   16CHTO   C28 6702   6.087   2.318   3.493 -0.9269  0.7028  0.2943
   16CHTO   H56 6703   6.004   2.381   3.462 -3.0084 -2.0727  0.0306
   16CHTO   C35 6704   6.181   2.405   3.582  0.0915  0.1481 -0.2492
   16CHTO   O24 6705   6.130   2.444   3.715  0.2526 -0.5746 -0.1607
   16CHTO   H39 6706   6.203   2.464   3.769  1.8027  2.1844 -3.0850
   16CHTO    O9 6707   5.907   2.008   3.594 -0.4489  0.0712  0.0117
   16CHTO   C13 6708   5.786   2.066   3.699 -0.1954  0.2770  0.0975
   16CHTO   H26 6709   5.708   2.117   3.639  1.3721  1.3735 -1.0425
   16CHTO   C11 6710   5.863   2.166   3.800 -0.3615 -0.1515 -0.8003
   16CHTO   H24 6711   5.885   2.261   3.749  1.7376 -0.2781 -0.1626
   16CHTO    O8 6712   5.987   2.101   3.839 -0.0186  0.5001  0.8199
   16CHTO    H3 6713   6.051   2.093   3.772 -0.3181 -0.5326  0.6447
   16CHTO    C9 6714   5.776   2.194   3.923 -0.0847  0.0876 -0.2467
   16CHTO   H22 6715   5.681   2.228   3.879 -1.0466  0.1682  1.8459
   16CHTO    N2 6716   5.826   2.312   3.997 -0.4357  0.6509  0.2359
   16CHTO   H10 6717   5.903   2.361   3.940  0.3134  0.5954  1.1746
   16CHTO   H11 6718   5.747   2.381   4.023 -0.7110  1.3443 -2.3658
   16CHTO    C7 6719   5.749   2.066   4.008  0.3608 -0.7379  0.0557
   16CHTO   H20 6720   5.644   2.081   4.042 -0.2770 -3.0963 -0.7759
   16CHTO    O4 6721   5.770   1.945   3.925 -0.6373  0.3700  0.6394
   16CHTO   C14 6722   5.719   1.953   3.787 -0.3129 -0.0464 -0.5945
   16CHTO   H27 6723   5.619   1.993   3.813  1.0048  1.8130  1.8900
   16CHTO   C18 6724   5.698   1.818   3.704 -0.1196  0.4253  0.0781
   16CHTO   O13 6725   5.604   1.732   3.778 -0.1760  0.5932  0.0658
   16CHTO    H7 6726   5.559   1.689   3.708  0.8132 -1.2774  0.5599
   16CHTO    O2 6727   5.836   2.061   4.134  0.5095 -0.2586 -0.6220
   16CHTO    C1 6728   5.800   1.956   4.226  0.1407 -0.7936 -0.4110
   16CHTO   H14 6729   5.741   1.874   4.181  1.8985 -3.0136  1.1919
   16CHTO    C2 6730   5.726   2.005   4.351  0.3886  0.5040  0.3273
   16CHTO   H15 6731   5.786   2.091   4.384  2.0087 -0.9216  1.1432
   16CHTO    O6 6732   5.588   2.047   4.316 -0.3125 -0.0281 -0.1293
   16CHTO    H1 6733   5.574   2.090   4.234 -0.2476  0.1871 -0.0269
   16CHTO    C3 6734   5.717   1.887   4.461  0.1328 -0.9411 -0.0888
   16CHTO   H16 6735   5.631   1.826   4.433  0.8334 -0.8845 -2.4853
   16CHTO    N1 6736   5.687   1.959   4.592 -0.5081 -0.4656  0.0810
   16CHTO    H8 6737   5.696   1.883   4.669  0.4261 -0.6316 -0.1854
   16CHTO    H9 6738   5.764   2.033   4.607  1.0845 -1.4613 -2.7906
   16CHTO    C4 6739   5.838   1.794   4.472 -0.6674 -1.6796  0.1699
   16CHTO   H17 6740   5.913   1.843   4.535 -0.8596  2.3104 -2.5162
   16CHTO    O1 6741   5.885   1.759   4.343 -0.1791  0.3360  0.4479
   16CHTO    C5 6742   5.929   1.875   4.269  0.1328 -1.0636  0.0157
   16CHTO   H18 6743   6.000   1.947   4.312  0.9100 -2.2802  0.8298
   16CHTO   C16 6744   6.002   1.800   4.151  0.4923  0.4866  0.3547
   16CHTO   O11 6745   6.073   1.888   4.063 -0.4318 -0.2462  0.0956
   16CHTO    H5 6746   6.023   1.964   4.039  0.5366  0.7291  1.1036
   16CHTO    O3 6747   5.796   1.677   4.543 -0.2970 -0.4656 -0.1354
   16CHTO    C6 6748   5.903   1.615   4.619 -0.8408 -0.2472  0.1056
   16CHTO   H19 6749   5.999   1.665   4.604 -0.5891 -0.1315  1.9497
   16CHTO    C8 6750   5.849   1.612   4.767  0.1269 -0.5297 -0.5992
   16CHTO   H21 6751   5.742   1.594   4.758 -0.6126  2.0707  2.1237
   16CHTO    O7 6752   5.870   1.746   4.822 -0.3440  0.9799 -0.0509
   16CHTO    H2 6753   5.819   1.802   4.766 -0.4403 -0.5644 -1.5481
   16CHTO   C12 6754   5.926   1.505   4.857 -1.1110  0.2233  0.2694
   16CHTO   H25 6755   6.020   1.540   4.905 -0.6690  0.0315 -0.4684
   16CHTO    N3 6756   5.842   1.472   4.975 -0.1361  0.2114  0.2571
   16CHTO   H12 6757   5.744   1.517   4.974 -1.1120 -1.7475  2.6201
   16CHTO   H13 6758   5.888   1.495   5.070  2.9279  2.0471 -1.5899
   16CHTO   C15 6759   5.952   1.371   4.772  0.2659  0.3114  0.2207
   16CHTO   H28 6760   5.861   1.311   4.762  0.3870  0.2635 -0.5676
   16CHTO   O10 6761   6.071   1.285   4.837  0.1891  0.2082  0.5829
   16CHTO    H4 6762   6.156   1.325   4.843  0.7857 -0.7048 -1.3692
   16CHTO    O5 6763   6.007   1.399   4.643 -0.2440 -0.1814  0.2229
   16CHTO   C10 6764   5.919   1.471   4.560 -0.1612 -0.2488 -0.0761
   16CHTO   H23 6765   5.827   1.412   4.554 -0.4178  0.2180 -0.7382
   16CHTO   C17 6766   5.968   1.460   4.413  0.9378 -0.8636  0.2857
   16CHTO   O12 6767   6.093   1.519   4.386 -0.4041 -0.1824  0.8654
   16CHTO    H6 6768   6.159   1.469   4.429  2.6597  2.5558 -0.4135
   17CHTO  H203 6769   6.575   4.464   5.220 -0.6643 -0.3500  2.3153
   17CHTO   O82 6770   6.504   4.429   5.169  0.5421  0.3820  0.0603
   17CHTO  C123 6771   6.401   4.528   5.158 -0.7010  0.0914  0.0905
   17CHTO  H227 6772   6.347   4.521   5.254  2.3158  0.3984  1.8828
   17CHTO   O77 6773   6.460   4.661   5.135 -0.9983  0.0434  0.1323
   17CHTO  C118 6774   6.371   4.765   5.139 -0.0798 -0.5214 -0.8778
   17CHTO  H222 6775   6.317   4.752   5.234  2.5169 -1.1618  0.5597
   17CHTO  C125 6776   6.462   4.893   5.141 -0.0683 -0.4687  0.1591
   17CHTO   O84 6777   6.551   4.874   5.028 -0.4299 -0.0670 -0.1596
   17CHTO  H205 6778   6.600   4.954   5.020 -0.9183  0.2379 -0.1774
   17CHTO  C114 6779   6.277   4.752   5.023 -0.5672  0.0254  0.1062
   17CHTO  H218 6780   6.335   4.767   4.932 -0.2854 -0.6511  0.1721
   17CHTO  C116 6781   6.199   4.621   5.008 -0.1172  0.5563  0.5585
   17CHTO  H220 6782   6.117   4.613   5.081 -0.4394 -2.9424 -0.0858
   17CHTO   O79 6783   6.124   4.622   4.884  0.2668  0.0511  0.2420
   17CHTO  H201 6784   6.035   4.635   4.908 -0.0396 -1.0521 -0.2476
   17CHTO  C120 6785   6.300   4.497   5.035 -0.5289  0.1845 -0.2014
   17CHTO  H224 6786   6.354   4.490   4.938 -1.1385 -0.2135 -0.5182
   17CHTO   N21 6787   6.234   4.369   5.046  0.1230 -0.2918 -0.1379
   17CHTO  H211 6788   6.199   4.362   5.148  1.3567 -0.3230  0.2952
   17CHTO  H212 6789   6.305   4.288   5.033  1.2159  1.0229 -2.6761
   17CHTO   O75 6790   6.196   4.866   5.037 -0.1701 -0.2141 -0.0561
   17CHTO  C112 6791   6.188   4.972   4.920 -0.0761  0.2362  0.8998
   17CHTO  H216 6792   6.142   4.915   4.838 -1.8151  1.1524  1.2233
   17CHTO   O73 6793   6.314   5.026   4.887 -0.6269 -0.0033  0.4085
   17CHTO  C113 6794   6.322   5.123   4.787  0.5687 -0.0238 -0.3728
   17CHTO  H217 6795   6.290   5.067   4.696 -1.2334  1.3152 -0.5892
   17CHTO  C124 6796   6.471   5.154   4.768  0.5670  0.5619 -0.1898
   17CHTO   O83 6797   6.518   5.206   4.642 -0.5063 -0.1122 -0.8697
   17CHTO  H204 6798   6.576   5.277   4.661 -2.4164  1.0484  0.8285
   17CHTO  C109 6799   6.244   5.251   4.814 -0.1055 -0.4075  0.1416
   17CHTO  H213 6800   6.288   5.301   4.902 -2.3748 -2.2220  2.4143
   17CHTO  C110 6801   6.101   5.207   4.839 -0.3588  0.7197  0.2386
   17CHTO  H214 6802   6.064   5.176   4.741  2.0603  1.4240 -0.9157
   17CHTO   O78 6803   6.024   5.323   4.864  0.6508 -0.7869  0.1173
   17CHTO  H200 6804   5.932   5.303   4.866  0.7890 -1.3923  2.2906
   17CHTO  C111 6805   6.088   5.093   4.951 -0.1506 -0.4737 -0.1226
   17CHTO  H215 6806   6.106   5.138   5.050 -0.8657  0.0426 -0.2219
   17CHTO   N19 6807   5.945   5.052   4.959 -0.3815 -0.0422 -0.1172
   17CHTO  H207 6808   5.910   5.052   5.061  0.3276  2.8337  0.1732
   17CHTO  H208 6809   5.926   4.953   4.920  1.1764 -0.4994  0.2331
   17CHTO   O74 6810   6.259   5.342   4.699 -0.2601 -0.1959  0.2466
   17CHTO  C115 6811   6.358   5.475   4.739  0.3616  0.3965  0.1437
   17CHTO  H219 6812   6.416   5.455   4.829  0.3869 -0.5509 -0.0761
   17CHTO   O76 6813   6.465   5.505   4.615 -0.5405  0.4093 -0.3227
   17CHTO  C122 6814   6.398   5.548   4.497 -0.1019 -0.4352 -0.2278
   17CHTO  H226 6815   6.331   5.468   4.463  0.4114 -0.5281 -1.0516
   17CHTO  C126 6816   6.510   5.557   4.393 -0.0978  0.6889  0.1134
   17CHTO   O85 6817   6.477   5.640   4.280 -0.2734  0.0904 -0.1713
   17CHTO  H206 6818   6.540   5.619   4.214  0.4066 -0.7319  0.7160
   17CHTO  C121 6819   6.313   5.681   4.510  0.6195 -0.0770  0.0258
   17CHTO  H225 6820   6.351   5.768   4.453  1.6112 -1.2594 -1.1557
   17CHTO   O81 6821   6.181   5.661   4.457 -0.4567 -0.0448 -0.1626
   17CHTO  H202 6822   6.148   5.748   4.457 -0.5929 -0.0959 -0.5264
   17CHTO  C119 6823   6.301   5.718   4.665 -0.6995  0.1789  0.2358
   17CHTO  H223 6824   6.402   5.752   4.692 -0.5158 -0.0379 -0.1821
   17CHTO  C117 6825   6.267   5.600   4.763  0.0224 -1.0593  0.3513
   17CHTO  H221 6826   6.165   5.562   4.746  0.9826 -2.8702 -1.6555
   17CHTO   N20 6827   6.271   5.645   4.907 -0.2269 -0.2461  0.0221
   17CHTO  H209 6828   6.359   5.703   4.929  0.7785 -1.9329  0.5622
   17CHTO  H210 6829   6.179   5.697   4.932  0.1722 -1.3491  4.3285
   17CHTO   O80 6830   6.207   5.872   4.685 -0.0225  0.4040  0.3203
   17CHTO  C103 6831   6.259   5.972   4.764  0.5485  0.6575 -0.3700
   17CHTO  H190 6832   6.323   5.936   4.844 -1.5194 -0.4889  0.7987
   17CHTO  C101 6833   6.346   6.083   4.689 -0.4476  0.9759 -0.5017
   17CHTO  H188 6834   6.293   6.137   4.611 -1.0272  1.8434  0.4915
   17CHTO   O68 6835   6.485   6.005   4.621 -0.6795  0.6924  0.0955
   17CHTO  H168 6836   6.499   5.934   4.680 -2.1647  1.4603  1.3969
   17CHTO   C99 6837   6.384   6.200   4.788  0.2605  0.0546 -0.5814
   17CHTO  H186 6838   6.456   6.157   4.861 -0.7963 -0.2120  0.3080
   17CHTO   N17 6839   6.466   6.310   4.733  0.5947 -0.2948 -0.0935
   17CHTO  H174 6840   6.488   6.379   4.813  0.3490  0.1683 -0.4222
   17CHTO  H175 6841   6.412   6.359   4.653 -0.4500 -0.6387  0.3882
   17CHTO   C97 6842   6.260   6.250   4.871 -0.1557  0.2912 -0.0647
   17CHTO  H184 6843   6.207   6.320   4.804 -2.1138 -0.7990  0.3141
   17CHTO   O64 6844   6.170   6.144   4.924 -0.1002 -0.7707 -0.6980
   17CHTO  C104 6845   6.131   6.040   4.835  0.4301 -0.1714  0.2041
   17CHTO  H191 6846   6.064   6.075   4.758 -1.6431 -4.4138 -0.0828
   17CHTO  C108 6847   6.040   5.940   4.916 -0.7710  0.2876 -0.0119
   17CHTO   O71 6848   5.924   6.007   4.963 -0.4076 -0.2102 -0.3094
   17CHTO  H171 6849   5.856   5.944   4.976 -0.8692  0.3829  0.2456
   17CHTO   O62 6850   6.303   6.317   4.993 -0.1423 -0.2183 -0.0288
   17CHTO   C91 6851   6.218   6.423   5.037  0.1358 -0.1031 -0.0923
   17CHTO  H178 6852   6.122   6.429   4.986 -0.6117 -0.0079  1.2936
   17CHTO   C92 6853   6.279   6.563   5.012 -0.2973 -0.0306  0.3443
   17CHTO  H179 6854   6.322   6.561   4.911  1.7190 -1.1957  1.1936
   17CHTO   O66 6855   6.173   6.661   5.016  0.8723 -0.0429 -0.2524
   17CHTO  H166 6856   6.174   6.721   4.944  3.9164  0.0169 -0.2307
   17CHTO   C93 6857   6.385   6.603   5.115 -0.1293  0.3594  0.5802
   17CHTO  H180 6858   6.393   6.712   5.104 -1.5723  0.4523  0.2555
   17CHTO   N16 6859   6.517   6.545   5.077  0.2303  0.2121  0.0939
   17CHTO  H172 6860   6.550   6.470   5.147 -0.7474 -0.8577 -0.5727
   17CHTO  H173 6861   6.599   6.615   5.076  1.3569 -1.0425  1.8202
   17CHTO   C94 6862   6.351   6.574   5.268 -0.4198  0.1842  0.4470
   17CHTO  H181 6863   6.417   6.499   5.311  0.1253 -0.4526 -1.4799
   17CHTO   O61 6864   6.213   6.521   5.274 -0.4024 -0.4959 -0.2632
   17CHTO   C95 6865   6.183   6.402   5.195  0.4210  0.2801 -0.0375
   17CHTO  H182 6866   6.237   6.317   5.238  0.1934 -0.1225 -0.5398
   17CHTO  C106 6867   6.033   6.368   5.217  0.2827  0.0865 -0.5375
   17CHTO   O69 6868   5.995   6.250   5.154 -0.0517 -0.0684  0.0775
   17CHTO  H169 6869   5.908   6.228   5.179 -0.4036  0.7001 -0.4384
   17CHTO   O63 6870   6.381   6.703   5.355 -0.2871  0.4984 -0.3626
   17CHTO   C96 6871   6.251   6.769   5.444  0.0708  0.0834 -0.2839
   17CHTO  H183 6872   6.171   6.695   5.447 -0.5274  0.6771 -1.2357
   17CHTO   C98 6873   6.188   6.894   5.390 -0.3150 -0.1614 -0.2933
   17CHTO  H185 6874   6.264   6.972   5.381  0.7348 -0.9304  1.6675
   17CHTO   O67 6875   6.150   6.860   5.253  0.3189 -0.9570  0.2094
   17CHTO  H167 6876   6.138   6.928   5.190 -0.4718 -2.8706 -1.7749
   17CHTO  C102 6877   6.069   6.956   5.487  0.1206  0.1730  0.1304
   17CHTO  H189 6878   5.988   6.882   5.474  0.1320 -0.0785  1.4219
   17CHTO   N18 6879   6.005   7.085   5.455 -0.0418  0.4495 -0.0814
   17CHTO  H176 6880   6.094   7.145   5.438  1.2843 -1.1411  1.0087
   17CHTO  H177 6881   5.949   7.080   5.363 -1.9360  1.0873  1.0071
   17CHTO  C105 6882   6.116   6.953   5.635 -0.2357 -0.1413  0.3061
   17CHTO  H192 6883   6.188   7.033   5.648 -1.7705  1.4386 -0.7473
   17CHTO   O65 6884   6.195   6.839   5.675 -0.5286  0.2244  0.2307
   17CHTO  C100 6885   6.297   6.795   5.587 -0.8569  0.3205 -0.0649
   17CHTO  H187 6886   6.367   6.880   5.582 -0.6420  0.0867 -1.2228
   17CHTO  C107 6887   6.371   6.665   5.643  0.2471 -0.6499 -0.2330
   17CHTO   O70 6888   6.283   6.553   5.644 -0.3508 -0.2446  0.7958
   17CHTO  H170 6889   6.306   6.481   5.588  0.4172  0.6409 -0.0388
   17CHTO   O57 6890   5.981   6.967   5.739  0.1255  0.7762  0.6054
   17CHTO   C85 6891   5.982   7.056   5.850 -0.4185  0.1124 -0.5862
   17CHTO  H157 6892   6.043   7.138   5.808 -1.5049  0.2108 -2.0088
   17CHTO   C83 6893   6.054   6.986   5.968 -0.1372  0.1719 -0.9098
   17CHTO  H155 6894   6.155   6.956   5.938 -0.5143 -2.9764  0.7441
   17CHTO   O56 6895   5.988   6.864   6.009 -0.0053 -0.1473 -0.1787
   17CHTO  H135 6896   5.945   6.816   5.941  0.4419 -0.7206 -0.0573
   17CHTO   C81 6897   6.069   7.088   6.082 -0.1010  0.2642 -0.3430
   17CHTO  H153 6898   6.125   7.172   6.041  0.9125 -1.2672 -2.1092
   17CHTO   N14 6899   6.152   7.038   6.190 -0.1805  0.1377 -0.7929
   17CHTO  H141 6900   6.103   6.964   6.248 -1.4893  1.4090 -0.2679
   17CHTO  H142 6901   6.246   6.997   6.158 -0.0707 -0.3260  0.1077
   17CHTO   C79 6902   5.921   7.143   6.123  0.6703  0.3764  0.0723
   17CHTO  H151 6903   5.929   7.226   6.193  0.4144  1.2018 -0.8758
   17CHTO   O52 6904   5.849   7.192   6.009 -0.1573 -0.3780  0.0657
   17CHTO   C86 6905   5.847   7.101   5.885 -0.6257  0.1189 -0.1499
   17CHTO  H158 6906   5.785   7.012   5.910  2.6864 -2.4460 -0.7031
   17CHTO   C90 6907   5.790   7.168   5.755  0.2909  0.3192 -0.2355
   17CHTO   O60 6908   5.664   7.238   5.777 -0.0999 -0.0711  0.2347
   17CHTO  H138 6909   5.665   7.273   5.864  1.2124 -0.9860  0.6014
   17CHTO   O50 6910   5.839   7.037   6.178 -0.3972 -0.4781  0.3543
   17CHTO   C73 6911   5.721   7.070   6.256 -0.0873 -0.3707 -0.2426
   17CHTO  H145 6912   5.667   7.164   6.234 -2.3131 -1.4525  0.4418
   17CHTO   C74 6913   5.756   7.074   6.414 -0.8683  0.1346  0.0072
   17CHTO  H146 6914   5.833   7.151   6.422 -0.9700  0.1204  1.0986
   17CHTO   O54 6915   5.642   7.125   6.490 -0.4366 -0.7947 -0.4266
   17CHTO  H133 6916   5.670   7.188   6.554 -1.6034  2.2784 -2.8050
   17CHTO   C75 6917   5.808   6.928   6.452 -0.4668  0.0480 -0.0792
   17CHTO  H147 6918   5.904   6.911   6.400  0.5799  1.8129  1.1981
   17CHTO   N13 6919   5.843   6.920   6.598  0.6592 -0.1649 -0.5115
   17CHTO  H139 6920   5.887   7.014   6.630  2.6396 -1.2110 -0.0855
   17CHTO  H140 6921   5.752   6.890   6.648 -0.4815  1.1984 -1.7214
   17CHTO   C76 6922   5.703   6.812   6.402  0.0776 -1.0924  0.8544
   17CHTO  H148 6923   5.610   6.824   6.456  0.0450 -1.4649  0.8837
   17CHTO   O49 6924   5.683   6.824   6.259 -0.1242 -0.3577 -0.0822
   17CHTO   C77 6925   5.621   6.951   6.228  0.1019 -0.9937  0.1975
   17CHTO  H149 6926   5.530   6.968   6.286  0.1688 -1.0807  0.3286
   17CHTO   C88 6927   5.575   6.944   6.080 -0.1116 -0.1793 -0.0197
   17CHTO   O58 6928   5.499   7.063   6.043 -0.3244 -0.5586 -0.4519
   17CHTO  H136 6929   5.542   7.102   5.969  2.4116  0.4165  1.5888
   17CHTO   O51 6930   5.752   6.674   6.418 -0.5413  0.4833 -0.0554
   17CHTO   C78 6931   5.646   6.579   6.394  0.7278  0.9470 -0.2972
   17CHTO  H150 6932   5.548   6.622   6.361  0.5129 -0.2338 -1.2379
   17CHTO   C80 6933   5.615   6.509   6.529  0.5588  0.0665  0.2358
   17CHTO  H152 6934   5.713   6.490   6.579  0.9077  0.8239 -0.1490
   17CHTO   O55 6935   5.544   6.603   6.608 -0.6532  0.1958 -0.1284
   17CHTO  H134 6936   5.548   6.587   6.701 -1.0209 -0.1643 -0.1684
   17CHTO   C84 6937   5.531   6.375   6.511  0.6875  0.1865 -0.4398
   17CHTO  H156 6938   5.426   6.402   6.501  0.9633  1.0422 -1.0952
   17CHTO   N15 6939   5.525   6.284   6.634 -0.7834 -0.1245  0.7028
   17CHTO  H143 6940   5.604   6.296   6.705 -0.5594 -1.9567  0.7810
   17CHTO  H144 6941   5.428   6.303   6.675 -1.5202  2.1413 -1.9011
   17CHTO   C87 6942   5.562   6.289   6.389 -0.3163  0.3128  0.2135
   17CHTO  H159 6943   5.658   6.237   6.395  0.0879  1.2023  1.5423
   17CHTO   O53 6944   5.578   6.381   6.277  0.6600  0.5223 -0.0223
   17CHTO   C82 6945   5.685   6.472   6.285  0.3504 -0.2333 -0.5809
   17CHTO  H154 6946   5.774   6.418   6.317 -1.7463 -2.8635  1.0151
   17CHTO   C89 6947   5.715   6.533   6.142 -0.0846  0.6038  0.7026
   17CHTO   O59 6948   5.852   6.570   6.125 -0.7648  0.2554  0.0980
   17CHTO  H137 6949   5.876   6.637   6.186 -0.2894  0.0161  0.1797
   17CHTO   O45 6950   5.442   6.196   6.346 -0.2187  0.8651  0.7171
   17CHTO   C67 6951   5.465   6.065   6.295  0.3182  0.5699 -0.5308
   17CHTO  H124 6952   5.546   6.012   6.344 -0.2162 -0.8429 -1.1568
   17CHTO   C65 6953   5.342   5.975   6.305  0.0260 -0.1365 -0.4971
   17CHTO  H122 6954   5.305   5.978   6.408  2.6578 -1.3426  0.5116
   17CHTO   O44 6955   5.393   5.841   6.285 -0.1576  0.2305 -0.1280
   17CHTO  H102 6956   5.392   5.825   6.193  0.8203 -0.5481 -0.0189
   17CHTO   C63 6957   5.229   6.019   6.208  0.3594 -0.0479  0.3522
   17CHTO  H120 6958   5.191   6.116   6.240  0.4870  0.1962 -0.2264
   17CHTO   N11 6959   5.105   5.940   6.228  0.5045  0.2372 -0.2347
   17CHTO  H108 6960   5.062   5.893   6.142  1.6502 -1.3698  0.0489
   17CHTO  H109 6961   5.025   5.994   6.275 -1.1204 -1.9836 -0.3793
   17CHTO   C61 6962   5.278   6.034   6.055  0.4325 -0.0115  0.4857
   17CHTO  H118 6963   5.202   6.094   6.004  0.9923  0.9596  0.7775
   17CHTO   O40 6964   5.404   6.115   6.045 -0.8518 -0.3644  0.4040
   17CHTO   C68 6965   5.512   6.083   6.141  0.2244  0.5350  0.0806
   17CHTO  H125 6966   5.575   6.174   6.146  0.9510  0.0295  0.0388
   17CHTO   C72 6967   5.607   5.970   6.093 -0.5592 -0.2935 -0.8576
   17CHTO   O48 6968   5.747   5.990   6.122 -0.2535 -0.5640 -0.2911
   17CHTO  H105 6969   5.793   5.909   6.127 -2.9239 -1.9917  2.4706
   17CHTO   O38 6970   5.298   5.904   5.996  0.3034  0.0386  0.2065
   17CHTO   C55 6971   5.286   5.871   5.856 -0.1221  0.9602  0.6372
   17CHTO  H112 6972   5.359   5.791   5.835 -0.1033  1.4115 -1.0705
   17CHTO   C56 6973   5.299   5.989   5.750  0.2329 -0.5738  0.6379
   17CHTO  H113 6974   5.245   6.075   5.793 -1.5068 -0.0367 -2.4397
   17CHTO   O42 6975   5.440   6.024   5.758 -0.2582 -0.2997  0.1235
   17CHTO  H100 6976   5.456   6.115   5.774 -0.4046 -0.4819  1.3464
   17CHTO   C57 6977   5.250   5.956   5.605 -1.4408 -0.2150  0.3474
   17CHTO  H114 6978   5.320   5.880   5.570 -0.2402  0.5176  1.1074
   17CHTO   N10 6979   5.248   6.065   5.510  0.3934  0.2917 -0.2591
   17CHTO  H106 6980   5.146   6.099   5.511  0.1126 -0.5285 -0.0865
   17CHTO  H107 6981   5.310   6.147   5.542 -0.6639  1.6883 -1.7086
   17CHTO   C58 6982   5.112   5.891   5.622 -0.9098  0.1653  0.1848
   17CHTO  H115 6983   5.043   5.970   5.659 -0.7434  0.5637 -0.3405
   17CHTO   O37 6984   5.112   5.777   5.706  0.4165  0.6961 -0.5004
   17CHTO   C59 6985   5.150   5.794   5.846  0.0423 -0.3006 -0.0140
   17CHTO  H116 6986   5.068   5.850   5.891  1.1186  1.2847  0.0172
   17CHTO   C70 6987   5.156   5.661   5.923  0.8402  0.2804 -0.2238
   17CHTO   O46 6988   5.266   5.568   5.923  0.4090 -0.1920  0.4267
   17CHTO  H103 6989   5.349   5.604   5.897  0.1998 -1.3790 -2.0715
   17CHTO   O39 6990   5.047   5.835   5.485  0.2762  0.2469 -0.0274
   17CHTO   C60 6991   4.904   5.837   5.474  0.4303 -0.2976  0.3734
   17CHTO  H117 6992   4.870   5.877   5.570  3.5620  0.0107  1.4253
   17CHTO   C62 6993   4.853   5.927   5.365  0.4478  0.7033  0.0856
   17CHTO  H119 6994   4.907   6.024   5.372 -1.4340  1.6872  1.1876
   17CHTO   O43 6995   4.870   5.867   5.234  0.4843  0.4132  0.1745
   17CHTO  H101 6996   4.831   5.782   5.223 -0.3354  0.7501  0.4240
   17CHTO   C66 6997   4.696   5.952   5.385  0.3644  0.4112 -0.4315
   17CHTO  H123 6998   4.680   5.975   5.491 -0.0711 -1.6732 -0.0246
   17CHTO   N12 6999   4.647   6.066   5.310 -0.9080 -0.2935  0.2905
   17CHTO  H110 7000   4.540   6.070   5.291 -0.8684 -0.0316  0.1238
   17CHTO  H111 7001   4.674   6.151   5.371  0.5320  0.9024 -1.9756
   17CHTO   C69 7002   4.615   5.827   5.360  0.2382  0.2994 -0.1673
   17CHTO  H126 7003   4.618   5.806   5.251 -1.0417  0.2095 -0.1891
   17CHTO   O41 7004   4.682   5.705   5.447 -0.0217  0.3506  0.3001
   17CHTO   C64 7005   4.845   5.695   5.456 -0.1476 -0.2002  0.4983
   17CHTO  H121 7006   4.892   5.651   5.365 -1.0338  2.0778 -1.0858
   17CHTO   C71 7007   4.873   5.598   5.573  0.0546  0.6101 -0.2693
   17CHTO   O47 7008   4.839   5.639   5.701 -0.2845  0.3167  0.2158
   17CHTO  H104 7009   4.877   5.723   5.721 -1.0582  0.3327  1.7156
   17CHTO   O34 7010   4.452   5.852   5.397 -0.0597  0.4113  0.4049
   17CHTO   C49 7011   4.329   5.900   5.497  0.1960  0.0624 -0.8190
   17CHTO   H91 7012   4.280   5.975   5.436 -0.3941 -1.5873 -2.4425
   17CHTO   C47 7013   4.386   5.966   5.627  0.6457  0.0648 -0.0330
   17CHTO   H89 7014   4.297   6.012   5.673  0.0340 -0.7598 -0.3832
   17CHTO   O33 7015   4.483   6.069   5.600 -0.4981 -0.2726 -0.0836
   17CHTO   H70 7016   4.531   6.044   5.523  0.1300  3.4396 -1.0209
   17CHTO   C45 7017   4.452   5.857   5.729 -0.3602 -0.5900 -0.0366
   17CHTO   H87 7018   4.560   5.847   5.712 -0.2877 -0.7640  0.5108
   17CHTO    N8 7019   4.434   5.898   5.869  0.3424  0.5130 -0.7105
   17CHTO   H75 7020   4.460   6.001   5.886 -0.2805  0.4414  0.7895
   17CHTO   H76 7021   4.509   5.841   5.921  2.2345  2.6814 -1.0025
   17CHTO   C43 7022   4.403   5.710   5.686 -0.0240  0.2064  0.3119
   17CHTO   H85 7023   4.471   5.692   5.603 -0.2464 -2.5813  0.6854
   17CHTO   O29 7024   4.266   5.705   5.647 -0.1567 -0.0048 -0.3488
   17CHTO   C50 7025   4.238   5.776   5.528  0.0976 -0.7710  0.1697
   17CHTO   H92 7026   4.240   5.716   5.436  2.5271  0.7292 -0.8252
   17CHTO   C54 7027   4.094   5.832   5.542 -0.5463  0.5084  0.0239
   17CHTO   O36 7028   3.995   5.729   5.552  0.0367 -0.0701 -0.4503
   17CHTO   H72 7029   4.002   5.696   5.640 -0.4621 -1.1499 -0.8112
   17CHTO   O27 7030   4.425   5.610   5.787 -0.1131  0.3853  0.4044
   17CHTO   C37 7031   4.532   5.518   5.785 -0.1536  0.0360 -0.0486
   17CHTO   H79 7032   4.615   5.552   5.722 -0.4878 -0.5284 -0.7998
   17CHTO   C38 7033   4.591   5.497   5.930 -0.1640  0.6119  0.2168
   17CHTO   H80 7034   4.509   5.479   6.001  0.4342  2.2481  1.3621
   17CHTO   O31 7035   4.655   5.620   5.969  0.0250 -0.6262  0.5151
   17CHTO   H68 7036   4.607   5.658   6.040 -3.8458  1.2956 -2.9338
   17CHTO   C39 7037   4.691   5.376   5.931 -0.7116  0.2853 -0.3150
   17CHTO   H81 7038   4.773   5.402   5.864 -1.8666 -1.4422 -2.4779
   17CHTO    N7 7039   4.745   5.350   6.070 -0.4604 -0.0724 -0.1375
   17CHTO   H73 7040   4.780   5.438   6.122  0.1719  0.4603 -1.4425
   17CHTO   H74 7041   4.814   5.268   6.064 -1.4617 -0.9601  0.1765
   17CHTO   C40 7042   4.636   5.240   5.862 -0.4629  0.0167 -0.2832
   17CHTO   H82 7043   4.569   5.190   5.932 -1.1424 -0.9466 -1.5962
   17CHTO   O26 7044   4.568   5.270   5.736 -0.3131 -0.8391 -0.0039
   17CHTO   C41 7045   4.480   5.382   5.723 -0.2700 -0.2892  0.2536
   17CHTO   H83 7046   4.385   5.361   5.775 -0.0491  0.8111  1.0985
   17CHTO   C52 7047   4.449   5.398   5.573 -0.5785  0.3352 -0.3877
   17CHTO   O35 7048   4.574   5.414   5.495  0.4591 -0.0756  0.4990
   17CHTO   H71 7049   4.593   5.331   5.455  0.3356 -1.5167  3.2634
   17CHTO   O28 7050   4.731   5.131   5.836 -0.1073  0.2586  0.1179
   17CHTO   C42 7051   4.858   5.120   5.755 -1.0580  0.0661  0.1838
   17CHTO   H84 7052   4.872   5.012   5.753 -3.1206 -0.2248 -0.0837
   17CHTO   C44 7053   4.991   5.184   5.814  0.0680 -0.1874  0.0267
   17CHTO   H86 7054   4.966   5.287   5.841 -2.4743 -0.4175 -1.2661
   17CHTO   O32 7055   5.020   5.112   5.937 -0.0044 -0.3124  0.7278
   17CHTO   H69 7056   4.995   5.167   6.009 -0.0594 -0.4868  0.8421
   17CHTO   C48 7057   5.120   5.185   5.718  0.2656  0.0260 -0.0582
   17CHTO   H90 7058   5.152   5.081   5.708 -1.0229 -0.6963  2.8106
   17CHTO    N9 7059   5.240   5.263   5.768  0.0178  0.1539  0.6366
   17CHTO   H77 7060   5.263   5.245   5.872  0.7125  0.9094  0.6207
   17CHTO   H78 7061   5.325   5.227   5.712 -1.1426  1.2462 -1.9069
   17CHTO   C51 7062   5.076   5.223   5.575  0.0511 -0.1228  0.5081
   17CHTO   H93 7063   5.038   5.326   5.570  1.2400  0.4537  2.7437
   17CHTO   O30 7064   4.981   5.133   5.528 -0.4219  0.1910  0.0081
   17CHTO   C46 7065   4.840   5.161   5.606 -0.1412  0.5609 -0.6270
   17CHTO   H88 7066   4.816   5.267   5.606  1.2506  0.8968  0.3943
   17CHTO   C53 7067   4.736   5.085   5.526  0.3668 -0.1083 -0.1098
   17CHTO   O72 7068   4.735   5.130   5.389 -0.9552  0.0536  0.2302
   17CHTO  H199 7069   4.699   5.216   5.381 -1.6604 -0.1921  0.7126
   17CHTO   O22 7070   5.182   5.216   5.481  0.4581 -0.2108  0.3540
   17CHTO   C31 7071   5.197   5.308   5.371  0.6118 -0.3764  0.1830
   17CHTO   H59 7072   5.280   5.263   5.312  0.1735  0.7630 -1.3139
   17CHTO   C29 7073   5.076   5.316   5.273  0.8037  0.1118 -0.1122
   17CHTO   H57 7074   4.983   5.335   5.329  0.9662 -1.6843  0.7959
   17CHTO   O21 7075   5.061   5.181   5.230  0.6233  0.3581  0.1615
   17CHTO   H37 7076   5.041   5.124   5.302  0.0581 -1.1768 -1.1651
   17CHTO   C27 7077   5.089   5.410   5.153 -0.2330  0.3046  1.0663
   17CHTO   H55 7078   5.172   5.375   5.090 -0.8050 -0.2772  0.6233
   17CHTO    N5 7079   4.962   5.431   5.078  1.1543 -0.7678 -0.3924
   17CHTO   H43 7080   4.901   5.343   5.093  0.8365 -0.5035 -0.1261
   17CHTO   H44 7081   4.968   5.455   4.973 -1.2152  3.5460  0.3507
   17CHTO   C25 7082   5.143   5.554   5.200 -0.5041  0.6705 -0.3980
   17CHTO   H53 7083   5.059   5.604   5.251 -0.5897 -0.3826  0.5307
   17CHTO   O17 7084   5.260   5.536   5.291 -0.0861  0.4578  0.1941
   17CHTO   C32 7085   5.242   5.453   5.406 -0.2044  0.4616 -0.9354
   17CHTO   H60 7086   5.167   5.487   5.478 -2.1882 -0.7035 -2.4199
   17CHTO   C36 7087   5.383   5.438   5.484 -0.4372  0.6885 -0.5792
   17CHTO   O25 7088   5.448   5.556   5.527 -0.2387  0.0466  0.1261
   17CHTO   H40 7089   5.379   5.615   5.552  0.5018  0.4619  1.2001
   17CHTO   O15 7090   5.199   5.639   5.058  0.7339 -0.0134 -0.1329
   17CHTO   C19 7091   5.241   5.778   5.020  0.2662  0.5403 -0.2495
   17CHTO   H47 7092   5.298   5.767   4.927  0.2574 -0.7823 -0.1045
   17CHTO   C20 7093   5.118   5.870   5.012 -0.2031 -0.0778  0.7107
   17CHTO   H48 7094   5.054   5.863   5.101 -0.1678  2.5724  0.9989
   17CHTO   O19 7095   5.041   5.818   4.902  0.1149  0.0749  0.3115
   17CHTO   H35 7096   5.072   5.843   4.817  2.6372  0.7297  1.3769
   17CHTO   C21 7097   5.158   6.025   4.983  0.0223  0.5695  0.1005
   17CHTO   H49 7098   5.201   6.023   4.883 -1.6564 -2.0245 -0.5989
   17CHTO    N4 7099   5.041   6.119   4.982 -0.3049  0.9750  0.5825
   17CHTO   H41 7100   4.957   6.068   4.938 -0.8948  2.0473  0.4401
   17CHTO   H42 7101   5.048   6.219   4.941 -0.3994  0.7606  0.0483
   17CHTO   C22 7102   5.268   6.070   5.087 -0.4135  0.2662 -0.2505
   17CHTO   H50 7103   5.219   6.075   5.185 -0.3711 -0.2366 -0.2029
   17CHTO   O14 7104   5.375   5.974   5.092  0.2688  0.2150 -0.1416
   17CHTO   C23 7105   5.335   5.840   5.122  0.5299  0.0774  0.7668
   17CHTO   H51 7106   5.289   5.836   5.222  0.2016 -0.8041  0.5872
   17CHTO   C34 7107   5.467   5.770   5.156  0.1567 -0.0140  0.0072
   17CHTO   O23 7108   5.567   5.811   5.057  0.1617 -0.1363 -0.3809
   17CHTO   H38 7109   5.529   5.869   4.993 -1.2388  0.6559  1.1435
   17CHTO   O16 7110   5.328   6.191   5.048  0.0180  0.3786  0.4469
   17CHTO   C24 7111   5.387   6.277   5.169 -0.3309 -0.6892  0.2373
   17CHTO   H52 7112   5.365   6.233   5.266 -2.7800 -3.4008 -1.4699
   17CHTO   C26 7113   5.328   6.418   5.157  0.5217  0.6986 -0.1047
   17CHTO   H54 7114   5.346   6.461   5.056 -1.8442  3.3527  0.5493
   17CHTO   O20 7115   5.181   6.421   5.173  0.6157  0.1730  0.1284
   17CHTO   H36 7116   5.136   6.417   5.090  0.6501  1.0085  0.0646
   17CHTO   C30 7117   5.394   6.513   5.261 -0.2843  0.0102  0.2132
   17CHTO   H58 7118   5.354   6.484   5.360 -0.2735 -0.9913 -0.0685
   17CHTO    N6 7119   5.352   6.656   5.253 -0.3979 -0.0267  0.1363
   17CHTO   H45 7120   5.395   6.720   5.329  1.0477  0.3721 -0.9852
   17CHTO   H46 7121   5.370   6.695   5.154  1.5281 -3.2763 -0.8555
   17CHTO   C33 7122   5.549   6.500   5.277  0.0613 -0.3836 -0.1828
   17CHTO   H61 7123   5.593   6.546   5.187 -0.9631 -0.1766 -0.5778
   17CHTO   O18 7124   5.585   6.360   5.276 -0.0666  0.4742 -0.3446
   17CHTO   C28 7125   5.540   6.289   5.159  0.2091 -0.3443 -0.0799
   17CHTO   H56 7126   5.566   6.337   5.064  1.1550  0.0530  0.3824
   17CHTO   C35 7127   5.609   6.148   5.160  0.2048 -0.3075  0.1367
   17CHTO   O24 7128   5.617   6.109   5.298 -0.1427 -0.1049 -0.0937
   17CHTO   H39 7129   5.682   6.041   5.306 -0.4212 -0.7179 -2.5995
   17CHTO    O9 7130   5.597   6.562   5.394  0.4425 -0.3931  0.4890
   17CHTO   C13 7131   5.754   6.589   5.404 -0.1674 -0.2579 -0.0707
   17CHTO   H26 7132   5.792   6.530   5.318  0.0552 -0.3014  0.0568
   17CHTO   C11 7133   5.815   6.538   5.545  0.9460 -0.3767 -0.3086
   17CHTO   H24 7134   5.911   6.491   5.518 -0.2089 -2.3825 -1.0588
   17CHTO    O8 7135   5.742   6.423   5.591 -0.1678 -0.2001  0.1835
   17CHTO    H3 7136   5.717   6.419   5.682 -0.9493  1.6742  0.0709
   17CHTO    C9 7137   5.835   6.660   5.640 -0.5562  0.0579 -0.3717
   17CHTO   H22 7138   5.931   6.708   5.615  0.2133 -0.6684  1.1416
   17CHTO    N2 7139   5.869   6.623   5.779  0.1251 -0.1385  0.5531
   17CHTO   H10 7140   5.857   6.705   5.849 -5.3923 -1.6844  1.6902
   17CHTO   H11 7141   5.810   6.537   5.808  0.0905 -0.2278  0.2199
   17CHTO    C7 7142   5.718   6.763   5.624 -0.5916 -0.3192  0.2757
   17CHTO   H20 7143   5.741   6.847   5.693 -0.8789  0.3294 -0.4137
   17CHTO    O4 7144   5.724   6.818   5.489 -0.1868 -0.5086  0.0505
   17CHTO   C14 7145   5.779   6.746   5.381  0.1437 -0.1109  0.7320
   17CHTO   H27 7146   5.889   6.758   5.374 -0.2056  2.5322 -0.7601
   17CHTO   C18 7147   5.720   6.804   5.250  0.6811  0.5651 -0.3875
   17CHTO   O13 7148   5.755   6.943   5.239  0.7163  0.4675 -0.6447
   17CHTO    H7 7149   5.676   6.989   5.217  0.1419 -0.0332  0.3444
   17CHTO    O2 7150   5.577   6.699   5.646  0.2620 -0.4124 -0.1326
   17CHTO    C1 7151   5.518   6.698   5.776  0.2749 -0.3054 -0.7851
   17CHTO   H14 7152   5.596   6.724   5.851  0.4313 -1.8089 -0.4009
   17CHTO    C2 7153   5.462   6.555   5.819  0.0577 -0.3556 -0.8843
   17CHTO   H15 7154   5.404   6.521   5.731 -0.1052  0.8090 -1.2351
   17CHTO    O6 7155   5.561   6.452   5.829  0.5603  0.6215 -0.5073
   17CHTO    H1 7156   5.623   6.463   5.899 -0.4243  0.7220  0.3665
   17CHTO    C3 7157   5.365   6.551   5.949 -0.5500  0.4173  0.2964
   17CHTO   H16 7158   5.438   6.567   6.030 -1.4383  1.5355  0.8953
   17CHTO    N1 7159   5.296   6.418   5.973  0.6359 -0.6518  0.2113
   17CHTO    H8 7160   5.241   6.418   6.066  0.7709 -1.7152  0.2952
   17CHTO    H9 7161   5.368   6.340   5.954 -2.4026 -2.7341 -3.3805
   17CHTO    C4 7162   5.270   6.674   5.952  0.1717 -0.1774 -0.2700
   17CHTO   H17 7163   5.181   6.657   5.891  1.1444  3.0007 -2.7562
   17CHTO    O1 7164   5.335   6.797   5.915  0.4153  0.2359  0.2095
   17CHTO    C5 7165   5.399   6.795   5.784 -0.2058 -1.0420 -0.3254
   17CHTO   H18 7166   5.331   6.755   5.708 -1.7876  1.1103 -0.0998
   17CHTO   C16 7167   5.434   6.942   5.740 -0.5209  0.3324  0.3305
   17CHTO   O11 7168   5.320   7.031   5.755  0.1698 -0.0719 -0.0537
   17CHTO    H5 7169   5.321   7.057   5.845  0.5544 -0.1262 -0.0428
   17CHTO    O3 7170   5.222   6.693   6.088 -0.1348  0.3070  0.1112
   17CHTO    C6 7171   5.158   6.818   6.133  0.2304  0.2826  0.1745
   17CHTO   H19 7172   5.207   6.908   6.096 -0.0939 -0.0309 -1.0365
   17CHTO    C8 7173   5.008   6.844   6.090 -0.2303  0.6691 -0.4591
   17CHTO   H21 7174   4.949   6.764   6.134 -2.2530  1.5031 -1.6158
   17CHTO    O7 7175   5.004   6.835   5.947 -0.5624 -0.0493  0.2958
   17CHTO    H2 7176   4.916   6.821   5.918 -1.1284 -0.7153  2.3042
   17CHTO   C12 7177   4.962   6.983   6.153  0.9094 -1.0868  0.4426
   17CHTO   H25 7178   5.027   7.059   6.104 -1.9725  1.6503  0.6407
   17CHTO    N3 7179   4.822   7.003   6.107 -0.1979 -0.0154  0.8675
   17CHTO   H12 7180   4.760   6.934   6.163 -0.8618  1.5822  2.1790
   17CHTO   H13 7181   4.782   7.103   6.123  1.0188  0.4442  1.0568
   17CHTO   C15 7182   4.981   6.983   6.307 -0.7976 -0.1060 -0.0319
   17CHTO   H28 7183   4.913   6.914   6.357 -0.5125 -0.2799  0.1162
   17CHTO   O10 7184   4.971   7.092   6.353  0.4011 -0.1443 -0.2232
   17CHTO    H4 7185   4.884   7.125   6.362  0.5995  0.4443 -0.4467
   17CHTO    O5 7186   5.119   6.952   6.337  0.3371 -0.1407 -0.0709
   17CHTO   C10 7187   5.167   6.827   6.287 -0.9012  0.1151  0.7721
   17CHTO   H23 7188   5.092   6.758   6.324  1.0103 -2.2468  0.3644
   17CHTO   C17 7189   5.313   6.793   6.334  0.3770 -0.6665  0.1983
   17CHTO   O12 7190   5.311   6.781   6.476 -0.9271 -0.1547 -0.1633
   17CHTO    H6 7191   5.359   6.706   6.505 -1.0789 -0.5803 -1.0144
   18CHTO  H203 7192   6.466   7.685   6.689 -0.6579 -0.9341  1.3749
   18CHTO   O82 7193   6.436   7.622   6.626  0.1467 -0.2957  0.3379
   18CHTO  C123 7194   6.499   7.496   6.609 -0.8217  0.3433  0.0165
   18CHTO  H227 7195   6.461   7.420   6.679 -0.1061  0.4189  0.4882
   18CHTO   O77 7196   6.472   7.470   6.471  0.9698  0.2488  0.1438
   18CHTO  C118 7197   6.507   7.339   6.419 -0.4057  0.4895 -0.1187
   18CHTO  H222 7198   6.465   7.252   6.472 -0.1374  0.0937 -0.5620
   18CHTO  C125 7199   6.456   7.341   6.271  0.3338 -0.2768 -0.2583
   18CHTO   O84 7200   6.455   7.217   6.200  0.3184  0.3383 -0.2567
   18CHTO  H205 7201   6.489   7.228   6.113 -0.2644  1.1840 -0.3795
   18CHTO  C114 7202   6.660   7.325   6.432 -0.2406 -0.2215  0.6381
   18CHTO  H218 7203   6.710   7.397   6.367 -3.1649  0.5304 -0.8506
   18CHTO  C116 7204   6.704   7.352   6.585 -0.4179 -0.9153  0.1867
   18CHTO  H220 7205   6.662   7.278   6.657 -1.9906 -1.0307 -0.8339
   18CHTO   O79 7206   6.850   7.327   6.590 -0.2461  0.1300 -0.1525
   18CHTO  H201 7207   6.901   7.370   6.524 -0.4703 -0.0848 -0.4675
   18CHTO  C120 7208   6.653   7.494   6.623 -0.1297 -0.8788 -0.5718
   18CHTO  H224 7209   6.709   7.565   6.558  0.5480  1.2919  2.2870
   18CHTO   N21 7210   6.694   7.534   6.758 -0.4602  0.4254 -0.2397
   18CHTO  H211 7211   6.695   7.447   6.822 -1.0169 -0.1158 -0.9575
   18CHTO  H212 7212   6.786   7.591   6.757  0.3507 -0.8925 -0.7161
   18CHTO   O75 7213   6.696   7.191   6.379 -0.2158  0.3402  0.1074
   18CHTO  C112 7214   6.812   7.193   6.261 -0.0232  0.8185  0.8225
   18CHTO  H216 7215   6.903   7.219   6.317  1.5205 -3.8700  0.7306
   18CHTO   O73 7216   6.775   7.294   6.163  0.0143 -0.0773 -0.0484
   18CHTO  C113 7217   6.883   7.316   6.074  0.0998 -0.0925  0.3431
   18CHTO  H217 7218   6.978   7.342   6.125 -0.5146 -0.1558  1.5358
   18CHTO  C124 7219   6.854   7.440   5.989 -0.0740  0.8909 -0.1607
   18CHTO   O83 7220   6.746   7.430   5.894 -0.4420 -0.6022  0.1072
   18CHTO  H204 7221   6.683   7.495   5.918 -1.0675 -2.3120  3.3762
   18CHTO  C109 7222   6.916   7.193   5.991  0.2615  0.4289 -0.2335
   18CHTO  H213 7223   6.828   7.169   5.929  0.4068  1.2433 -0.7563
   18CHTO  C110 7224   6.942   7.073   6.089 -0.2023  0.8027  0.6707
   18CHTO  H214 7225   7.041   7.090   6.132 -0.5778  2.7334  0.7883
   18CHTO   O78 7226   6.969   6.954   6.003 -0.4375 -0.0301 -0.3548
   18CHTO  H200 7227   7.040   6.968   5.943 -1.7159 -0.7383 -2.0479
   18CHTO  C111 7228   6.828   7.053   6.193 -0.4492 -0.0117  0.7303
   18CHTO  H215 7229   6.733   7.026   6.145  0.4790  0.0659 -1.1867
   18CHTO   N19 7230   6.856   6.946   6.298 -0.7348 -0.2823 -0.6647
   18CHTO  H207 7231   6.767   6.898   6.335 -0.2898  0.4737  1.4586
   18CHTO  H208 7232   6.926   6.975   6.375 -1.0164 -2.1838  0.3253
   18CHTO   O74 7233   7.028   7.215   5.898 -0.0710 -0.2295  0.0245
   18CHTO  C115 7234   7.006   7.140   5.746  0.2404 -0.0849 -0.1130
   18CHTO  H219 7235   6.947   7.049   5.754 -0.3799 -0.1601 -4.1830
   18CHTO   O76 7236   6.917   7.226   5.653  0.3356 -0.5126 -0.2651
   18CHTO  C122 7237   6.985   7.348   5.615  0.0593  0.4742 -0.1255
   18CHTO  H226 7238   7.015   7.399   5.707  0.6479  0.4933 -0.3294
   18CHTO  C126 7239   6.886   7.449   5.542 -0.0891 -0.3103 -0.0896
   18CHTO   O85 7240   6.745   7.457   5.584  0.3901 -0.5091  0.1754
   18CHTO  H206 7241   6.720   7.547   5.591 -0.8767 -0.5815 -2.7097
   18CHTO  C121 7242   7.113   7.317   5.527 -0.0465  0.8714  0.4538
   18CHTO  H225 7243   7.072   7.334   5.426  0.1427  0.0006  0.2268
   18CHTO   O81 7244   7.216   7.409   5.563 -0.0557 -0.5133  0.2665
   18CHTO  H202 7245   7.301   7.384   5.533  1.2354 -2.3483  4.9821
   18CHTO  C119 7246   7.157   7.165   5.537 -0.8921  0.0581 -0.3476
   18CHTO  H223 7247   7.078   7.108   5.489 -0.6363  0.2859 -1.0307
   18CHTO  C117 7248   7.153   7.124   5.688 -0.5265 -0.3001 -0.0252
   18CHTO  H221 7249   7.227   7.177   5.748  0.2811 -1.1587 -0.2569
   18CHTO   N20 7250   7.191   6.979   5.705 -0.0202  0.3362  0.1654
   18CHTO  H209 7251   7.127   6.904   5.662 -0.5652  1.5657 -1.2427
   18CHTO  H210 7252   7.298   6.966   5.708 -0.1335 -0.1821  2.4240
   18CHTO   O80 7253   7.290   7.122   5.440 -0.3157 -0.1085 -0.2021
   18CHTO  C103 7254   7.277   7.056   5.294  0.4431  0.1835 -0.3908
   18CHTO  H190 7255   7.375   7.031   5.254  2.3365  1.9876  2.8999
   18CHTO  C101 7256   7.186   6.929   5.275  0.4964  0.6232 -0.1724
   18CHTO  H188 7257   7.082   6.951   5.300  0.3092  0.2752 -0.6430
   18CHTO   O68 7258   7.245   6.818   5.332  0.1934 -0.2410 -0.5538
   18CHTO  H168 7259   7.178   6.772   5.380 -0.4410  2.0285  0.8220
   18CHTO   C99 7260   7.175   6.898   5.113 -0.1682  0.7107 -0.6379
   18CHTO  H186 7261   7.277   6.878   5.074 -0.3485 -0.2864 -0.5933
   18CHTO   N17 7262   7.096   6.780   5.079 -0.3366  0.5635  0.2584
   18CHTO  H174 7263   7.049   6.742   5.169  0.4974 -1.2746 -0.0642
   18CHTO  H175 7264   7.142   6.696   5.030  2.2262  1.5899  0.8177
   18CHTO   C97 7265   7.128   7.025   5.042 -0.1122 -0.0909  0.0956
   18CHTO  H184 7266   7.028   7.040   5.084 -0.5264 -0.8905 -0.5840
   18CHTO   O64 7267   7.216   7.136   5.068 -0.0830  0.4474  0.5473
   18CHTO  C104 7268   7.213   7.174   5.209 -0.4445 -0.1102  0.3821
   18CHTO  H191 7269   7.115   7.201   5.248 -0.1203  2.0334 -0.1968
   18CHTO  C108 7270   7.299   7.301   5.211 -0.9120 -0.0126 -0.1652
   18CHTO   O71 7271   7.430   7.270   5.158  0.3484  0.8196  0.5381
   18CHTO  H171 7272   7.488   7.260   5.231 -0.0377  1.0940  0.8846
   18CHTO   O62 7273   7.123   7.015   4.897  0.6746  0.4433 -0.4988
   18CHTO   C91 7274   7.004   7.071   4.838  0.2258  0.1831 -0.6353
   18CHTO  H178 7275   6.913   7.036   4.887  0.9542  2.3435  2.4431
   18CHTO   C92 7276   7.005   7.013   4.698  0.4105 -0.4785 -0.1776
   18CHTO  H179 7277   7.096   7.049   4.646  0.1581  1.6565  0.7814
   18CHTO   O66 7278   7.006   6.864   4.706 -0.2238  0.0128  0.1125
   18CHTO  H166 7279   7.088   6.827   4.734 -1.2311 -1.6902  0.9667
   18CHTO   C93 7280   6.880   7.059   4.619  0.0207 -0.2338 -0.1994
   18CHTO  H180 7281   6.800   7.008   4.675  1.3727 -0.2177  1.8069
   18CHTO   N16 7282   6.882   7.012   4.477 -0.4088 -0.2436 -0.2565
   18CHTO  H172 7283   6.963   6.942   4.464  0.3354  0.8404 -1.6637
   18CHTO  H173 7284   6.866   7.093   4.407  3.2892  1.9582  1.2605
   18CHTO   C94 7285   6.851   7.212   4.627  0.5734 -0.1958 -0.0967
   18CHTO  H181 7286   6.861   7.259   4.530  0.2304 -2.4008 -1.2312
   18CHTO   O61 7287   6.948   7.279   4.707  0.3418 -0.1091  0.1689
   18CHTO   C95 7288   6.985   7.233   4.837  0.5767 -0.0479  0.5925
   18CHTO  H182 7289   7.078   7.282   4.865  0.2142  0.3290  1.1426
   18CHTO  C106 7290   6.880   7.277   4.950 -0.6268  0.4355 -0.2217
   18CHTO   O69 7291   6.917   7.255   5.086  0.1454 -0.0219  0.4006
   18CHTO  H169 7292   7.003   7.288   5.103 -0.9156  1.6802  2.7433
   18CHTO   O63 7293   6.704   7.257   4.690 -0.3608  1.0279  0.3454
   18CHTO   C96 7294   6.608   7.350   4.619  0.0417  0.1393 -0.1857
   18CHTO  H183 7295   6.511   7.322   4.661  0.6742  1.9770  2.6484
   18CHTO   C98 7296   6.611   7.344   4.466  0.1953  0.3388 -0.0606
   18CHTO  H185 7297   6.711   7.365   4.427  0.8444  0.1551  1.4576
   18CHTO   O67 7298   6.569   7.213   4.418  0.0032 -0.3216 -0.4602
   18CHTO  H167 7299   6.599   7.196   4.330  1.8572  0.8043 -0.0894
   18CHTO  C102 7300   6.519   7.456   4.394 -0.0693 -0.2639 -0.1216
   18CHTO  H189 7301   6.415   7.439   4.424  0.0402 -0.0468  0.3904
   18CHTO   N18 7302   6.526   7.473   4.246  0.0837 -0.4421  0.4809
   18CHTO  H176 7303   6.430   7.467   4.197  0.9329 -0.1809 -1.2728
   18CHTO  H177 7304   6.591   7.398   4.204 -1.2111 -1.3755  0.1315
   18CHTO  C105 7305   6.540   7.595   4.472 -0.3644  0.4797 -0.0459
   18CHTO  H192 7306   6.638   7.634   4.447  0.2454  0.5681  2.3393
   18CHTO   O65 7307   6.544   7.597   4.621  0.1761  0.1864  0.4259
   18CHTO  C100 7308   6.645   7.496   4.663  0.8950 -0.5176 -0.0669
   18CHTO  H187 7309   6.739   7.532   4.618 -0.7908  0.3236 -3.1309
   18CHTO  C107 7310   6.652   7.516   4.817 -0.1957 -0.0236  0.6438
   18CHTO   O70 7311   6.541   7.461   4.883  0.2809  0.4260 -0.0329
   18CHTO  H170 7312   6.575   7.386   4.928  1.5016 -0.0333 -1.6471
   18CHTO   O57 7313   6.433   7.695   4.416 -0.4412 -0.1499  0.4084
   18CHTO   C85 7314   6.472   7.834   4.411  0.1512  0.2032  0.2854
   18CHTO  H157 7315   6.576   7.831   4.372  0.1490 -0.6357  0.3407
   18CHTO   C83 7316   6.491   7.886   4.560  0.2916  0.0386  0.0839
   18CHTO  H155 7317   6.571   7.828   4.606 -0.1758 -0.2669  0.5080
   18CHTO   O56 7318   6.375   7.853   4.637 -0.5815  0.3046  0.1728
   18CHTO  H135 7319   6.387   7.843   4.729 -0.1233  0.1537  0.0983
   18CHTO   C81 7320   6.525   8.033   4.559  0.6041  0.0841 -0.9958
   18CHTO  H153 7321   6.616   8.043   4.499  0.8009 -1.1886 -0.9219
   18CHTO   N14 7322   6.568   8.084   4.690  0.2084  0.3520 -0.2644
   18CHTO  H141 7323   6.538   8.186   4.704  0.9393  0.4166  0.8466
   18CHTO  H142 7324   6.521   8.022   4.763  0.5680 -0.1120 -0.4222
   18CHTO   C79 7325   6.413   8.120   4.486 -0.1965  0.5988  0.3595
   18CHTO  H151 7326   6.448   8.223   4.477  0.7987  0.1620 -1.0086
   18CHTO   O52 7327   6.406   8.074   4.350 -0.9988 -0.1483 -0.1416
   18CHTO   C86 7328   6.383   7.933   4.338 -1.0812  0.1900 -0.8361
   18CHTO  H158 7329   6.276   7.924   4.366 -0.6368 -0.6881  0.6384
   18CHTO   C90 7330   6.387   7.900   4.188  0.5946 -0.4868  0.5105
   18CHTO   O60 7331   6.337   7.767   4.155 -0.2357 -0.1639 -0.0083
   18CHTO  H138 7332   6.247   7.756   4.180 -0.0862  0.0509  0.6146
   18CHTO   O50 7333   6.285   8.116   4.543 -0.3526  0.1848  0.0773
   18CHTO   C73 7334   6.155   8.165   4.522  0.3830  0.2635 -0.2431
   18CHTO  H145 7335   6.130   8.156   4.415 -2.6395 -0.7655  0.5031
   18CHTO   C74 7336   6.143   8.318   4.563 -0.2853  0.0558 -0.4499
   18CHTO  H146 7337   6.224   8.369   4.510  0.7171  0.5770  1.5365
   18CHTO   O54 7338   6.015   8.368   4.522  0.0487  0.2330  0.3016
   18CHTO  H133 7339   5.999   8.346   4.432  4.1250 -1.4345 -0.1257
   18CHTO   C75 7340   6.168   8.325   4.716  0.0281  0.8726  0.1461
   18CHTO  H147 7341   6.264   8.277   4.741 -1.2694 -1.5200  0.7120
   18CHTO   N13 7342   6.183   8.465   4.766 -0.2197  0.0922  0.2135
   18CHTO  H139 7343   6.116   8.536   4.719 -0.0024  0.7280  0.8550
   18CHTO  H140 7344   6.157   8.461   4.871 -3.9259  1.4909 -0.5670
   18CHTO   C76 7345   6.050   8.245   4.794  0.8054  0.5405  0.4846
   18CHTO  H148 7346   5.956   8.296   4.776  1.5750  1.5110 -0.9286
   18CHTO   O49 7347   6.045   8.108   4.738  0.1357 -0.4517  0.5680
   18CHTO   C77 7348   6.045   8.086   4.594 -0.7190 -0.3407  0.2837
   18CHTO  H149 7349   5.947   8.123   4.563 -1.4548 -0.6548  2.2009
   18CHTO   C88 7350   6.047   7.933   4.553 -0.1051 -0.0553 -0.1820
   18CHTO   O58 7351   5.984   7.913   4.418 -0.5362  0.9479  0.6221
   18CHTO  H136 7352   6.052   7.923   4.354 -0.1034  0.0508  0.9258
   18CHTO   O51 7353   6.080   8.244   4.976 -0.5798  0.0302  0.2345
   18CHTO   C78 7354   5.984   8.178   5.036  0.0894 -0.0429 -0.6816
   18CHTO  H150 7355   5.944   8.101   4.967  0.5192 -0.6254 -0.2841
   18CHTO   C80 7356   5.865   8.275   5.073  0.3872 -0.2911  0.2041
   18CHTO  H152 7357   5.902   8.362   5.131 -1.4492  0.4316  0.3242
   18CHTO   O55 7358   5.810   8.327   4.951 -0.1548 -0.2956  0.0302
   18CHTO  H134 7359   5.865   8.395   4.918 -0.0883 -0.1504  0.4364
   18CHTO   C84 7360   5.756   8.198   5.158  0.2483 -0.1182  0.3324
   18CHTO  H156 7361   5.708   8.122   5.096  0.0346 -0.8185  1.3472
   18CHTO   N15 7362   5.642   8.280   5.205  0.3634  0.3301  0.1977
   18CHTO  H143 7363   5.628   8.285   5.311 -0.9515 -1.3316  0.1220
   18CHTO  H144 7364   5.548   8.267   5.155  1.3982  1.1618 -2.0416
   18CHTO   C87 7365   5.821   8.113   5.272  0.3764 -0.8122 -0.3176
   18CHTO  H159 7366   5.870   8.180   5.343  1.9751  1.3289 -3.3151
   18CHTO   O53 7367   5.937   8.022   5.212 -0.3005  0.4072 -0.4626
   18CHTO   C82 7368   6.040   8.104   5.166 -0.4304 -0.5073  0.1115
   18CHTO  H154 7369   6.076   8.175   5.240 -0.8203  0.3832 -0.5408
   18CHTO   C89 7370   6.152   8.012   5.131  0.1357  0.3176 -0.0893
   18CHTO   O59 7371   6.199   7.934   5.237  0.1090 -0.0820  0.0928
   18CHTO  H137 7372   6.148   7.855   5.242  0.2589 -0.0453  2.8446
   18CHTO   O45 7373   5.700   8.021   5.353  0.4241  0.4662 -0.0906
   18CHTO   C67 7374   5.747   8.010   5.490  0.4572  0.3044 -0.3100
   18CHTO  H124 7375   5.849   8.048   5.494  0.4711  0.5114 -2.2489
   18CHTO   C65 7376   5.660   8.103   5.584  0.1596  0.2465  0.6012
   18CHTO  H122 7377   5.558   8.088   5.549  0.3736  3.3351 -1.5175
   18CHTO   O44 7378   5.704   8.239   5.563 -0.4816  0.1402 -0.5768
   18CHTO  H102 7379   5.648   8.290   5.619  1.3344  1.8604 -0.2608
   18CHTO   C63 7380   5.644   8.053   5.731 -0.4269  0.5818  0.0518
   18CHTO  H120 7381   5.562   7.981   5.733  2.1468 -2.4253  1.8398
   18CHTO   N11 7382   5.595   8.156   5.826 -0.0737  1.0843  0.2452
   18CHTO  H108 7383   5.575   8.118   5.924 -0.7206  1.0820  0.1160
   18CHTO  H109 7384   5.665   8.237   5.835 -2.2659  2.8911  1.5588
   18CHTO   C61 7385   5.780   7.978   5.770 -0.1965  0.7781 -0.1635
   18CHTO  H118 7386   5.772   7.938   5.872  0.8686  0.0404 -0.3517
   18CHTO   O40 7387   5.808   7.861   5.684  0.4176  0.8036  0.0618
   18CHTO   C68 7388   5.747   7.863   5.554 -0.2980 -0.1393 -0.1825
   18CHTO  H125 7389   5.643   7.825   5.556  0.2625 -1.6255  2.7027
   18CHTO   C72 7390   5.832   7.759   5.465 -0.1848 -0.1459 -0.3387
   18CHTO   O48 7391   5.967   7.797   5.456  0.5672  0.3592  0.5586
   18CHTO  H105 7392   6.021   7.720   5.465 -1.5905 -1.0524  1.7755
   18CHTO   O38 7393   5.891   8.071   5.768 -0.3054 -0.1321 -0.5568
   18CHTO   C55 7394   6.011   8.027   5.840  0.1263  0.9365 -0.3967
   18CHTO  H112 7395   6.032   7.922   5.816 -0.9849  0.0681  2.2191
   18CHTO   C56 7396   6.011   8.050   6.002  0.7005  0.0862 -0.5632
   18CHTO  H113 7397   6.007   8.158   6.025  0.2726 -0.2037  0.8081
   18CHTO   O42 7398   5.893   7.988   6.057  0.4960 -0.2813 -0.0263
   18CHTO  H100 7399   5.860   8.038   6.129 -0.3415 -1.0018  0.1061
   18CHTO   C57 7400   6.144   7.994   6.055 -0.7540 -0.7430 -0.2558
   18CHTO  H114 7401   6.144   7.889   6.026 -1.6873 -0.5915 -0.8468
   18CHTO   N10 7402   6.161   8.000   6.203  0.3066 -0.3142  0.1295
   18CHTO  H106 7403   6.059   7.988   6.237 -1.5269  0.3060 -4.7451
   18CHTO  H107 7404   6.215   7.909   6.223 -1.7246 -1.4968  0.4479
   18CHTO   C58 7405   6.263   8.070   5.986  0.9799 -0.0236 -0.3920
   18CHTO  H115 7406   6.256   8.176   6.021 -2.2056 -0.3369  0.1137
   18CHTO   O37 7407   6.251   8.054   5.842  0.2135 -0.5589  0.3032
   18CHTO   C59 7408   6.130   8.103   5.782  0.5634  0.1037 -0.7586
   18CHTO  H116 7409   6.112   8.210   5.798  0.0400 -0.1752  0.5937
   18CHTO   C70 7410   6.146   8.083   5.636 -0.7464  0.2094 -0.0487
   18CHTO   O46 7411   6.238   8.164   5.562 -0.0710 -0.2681  0.1012
   18CHTO  H103 7412   6.257   8.132   5.475  1.8732 -0.5098  0.5875
   18CHTO   O39 7413   6.398   8.012   6.025 -0.0742 -0.3353 -0.9786
   18CHTO   C60 7414   6.421   7.884   5.957  0.1864 -0.0805  0.8359
   18CHTO  H117 7415   6.326   7.835   5.937 -0.1631  0.9956 -0.2105
   18CHTO   C62 7416   6.509   7.914   5.826 -0.2413 -0.4242  0.6155
   18CHTO  H119 7417   6.457   7.996   5.773 -1.0571 -1.8089 -0.7612
   18CHTO   O43 7418   6.650   7.949   5.836 -0.2664  0.3873  0.1295
   18CHTO  H101 7419   6.679   7.988   5.756 -1.7857  2.9173  0.7799
   18CHTO   C66 7420   6.486   7.782   5.738  0.4187 -0.1239  0.7617
   18CHTO  H123 7421   6.382   7.751   5.744  1.0101 -2.3052 -0.0086
   18CHTO   N12 7422   6.515   7.805   5.594  0.1742  0.6622  0.1508
   18CHTO  H110 7423   6.589   7.731   5.567 -0.0368  0.6179 -0.3012
   18CHTO  H111 7424   6.431   7.776   5.533  1.5957 -3.1181 -0.1614
   18CHTO   C69 7425   6.563   7.669   5.799 -0.5428  0.5872  0.3160
   18CHTO  H126 7426   6.673   7.677   5.791 -0.5953  1.0274  0.0570
   18CHTO   O41 7427   6.524   7.662   5.956  0.0891 -0.5502  0.8300
   18CHTO   C64 7428   6.507   7.786   6.042 -0.0140 -0.2273  0.5169
   18CHTO  H121 7429   6.596   7.848   6.065  0.4518  0.4121 -2.7900
   18CHTO   C71 7430   6.433   7.744   6.173  0.0086  0.4851 -0.5464
   18CHTO   O47 7431   6.466   7.843   6.268  0.3992  0.0174 -0.3250
   18CHTO  H104 7432   6.559   7.837   6.278  0.2005 -2.7472  0.2116
   18CHTO   O34 7433   6.520   7.539   5.746 -0.3103  0.8292  0.7413
   18CHTO   C49 7434   6.449   7.412   5.713  0.5736 -0.4981  0.1256
   18CHTO   H91 7435   6.523   7.350   5.664 -0.3169 -1.4622 -0.0168
   18CHTO   C47 7436   6.332   7.438   5.615  0.4284 -0.3010  0.1287
   18CHTO   H89 7437   6.304   7.340   5.571  0.9268 -1.4248  2.2647
   18CHTO   O33 7438   6.376   7.513   5.496  0.3809  0.0604 -0.5621
   18CHTO   H70 7439   6.362   7.472   5.413 -0.8123 -1.4749  0.3737
   18CHTO   C45 7440   6.211   7.511   5.690 -0.1611  0.2367 -0.8532
   18CHTO   H87 7441   6.225   7.620   5.680 -0.0141  0.3237  0.3162
   18CHTO    N8 7442   6.086   7.472   5.614  0.3260 -0.0343 -0.2824
   18CHTO   H75 7443   6.011   7.533   5.660  0.4127 -0.8564  0.9519
   18CHTO   H76 7444   6.061   7.368   5.628 -1.4956  0.5219  0.6475
   18CHTO   C43 7445   6.208   7.488   5.849  0.2803  0.3608  0.2653
   18CHTO   H85 7446   6.273   7.564   5.893 -2.1940  1.1407  2.6661
   18CHTO   O29 7447   6.251   7.351   5.882  0.2448 -0.1948  0.0862
   18CHTO   C50 7448   6.392   7.341   5.843  0.2928 -0.3431  0.0049
   18CHTO   H92 7449   6.456   7.379   5.924 -0.5856 -0.3669  0.7176
   18CHTO   C54 7450   6.419   7.183   5.862  0.4928 -0.1857 -0.3115
   18CHTO   O36 7451   6.560   7.155   5.875 -0.2078 -0.0497 -0.2532
   18CHTO   H72 7452   6.604   7.183   5.798 -2.2942  0.8133 -1.1871
   18CHTO   O27 7453   6.082   7.522   5.909 -0.1808 -0.0378 -0.2362
   18CHTO   C37 7454   6.008   7.528   6.035  0.2166 -0.1866  0.0777
   18CHTO   H79 7455   5.970   7.427   6.056  0.8115 -0.3889  0.1844
   18CHTO   C38 7456   6.097   7.553   6.160 -0.6657 -0.5838 -0.2456
   18CHTO   H80 7457   6.156   7.645   6.143 -1.1939  0.1762  1.9085
   18CHTO   O31 7458   6.183   7.435   6.171  0.6724  0.0795  0.1628
   18CHTO   H68 7459   6.255   7.445   6.112  0.1722  0.9255 -0.3185
   18CHTO   C39 7460   6.012   7.591   6.287 -0.1421  0.1540  0.4976
   18CHTO   H81 7461   5.964   7.503   6.329 -0.0055  0.8987  2.2502
   18CHTO    N7 7462   6.105   7.637   6.395 -0.1162  0.1133 -0.3565
   18CHTO   H73 7463   6.199   7.583   6.398 -0.9634 -1.4167 -0.6270
   18CHTO   H74 7464   6.125   7.739   6.367  1.8379  0.6146  2.5353
   18CHTO   C40 7465   5.895   7.681   6.256  0.6233  0.2367  0.7225
   18CHTO   H82 7466   5.929   7.783   6.239 -1.8030  0.5781 -2.6819
   18CHTO   O26 7467   5.824   7.636   6.146  0.6806  0.3160 -0.1181
   18CHTO   C41 7468   5.890   7.626   6.021 -0.1430  0.6866 -0.3144
   18CHTO   H83 7469   5.922   7.726   5.986  0.1475  0.2156 -1.4202
   18CHTO   C52 7470   5.794   7.576   5.917  0.0649  0.2126  0.2153
   18CHTO   O35 7471   5.654   7.623   5.922  0.2656 -0.1048  0.2832
   18CHTO   H71 7472   5.649   7.715   5.908  1.1982  0.3521  2.7187
   18CHTO   O28 7473   5.804   7.685   6.366 -0.0627 -0.2109  0.4635
   18CHTO   C42 7474   5.660   7.655   6.367  0.4143  0.8371 -0.7237
   18CHTO   H84 7475   5.631   7.682   6.469  1.1954 -1.0892  0.0309
   18CHTO   C44 7476   5.618   7.503   6.349 -0.3445  0.6166  0.2640
   18CHTO   H86 7477   5.679   7.462   6.270 -0.2281  1.3686 -0.0420
   18CHTO   O32 7478   5.670   7.427   6.464  0.6561 -0.5361 -0.7771
   18CHTO   H69 7479   5.625   7.345   6.463  0.0607 -0.2183 -2.5824
   18CHTO   C48 7480   5.469   7.473   6.345 -0.1173 -0.4770  0.0628
   18CHTO   H90 7481   5.422   7.491   6.441 -1.7756 -0.4665 -0.7315
   18CHTO    N9 7482   5.436   7.330   6.313  0.0224  0.1404 -0.2094
   18CHTO   H77 7483   5.330   7.331   6.291  0.0472  0.7668 -0.2925
   18CHTO   H78 7484   5.485   7.311   6.219 -1.9288 -0.9803 -1.0261
   18CHTO   C51 7485   5.402   7.572   6.234  0.2352 -0.7819  0.3399
   18CHTO   H93 7486   5.443   7.554   6.134 -1.5782 -1.4506 -0.2992
   18CHTO   O30 7487   5.415   7.708   6.275  0.1473 -0.9774 -0.6211
   18CHTO   C46 7488   5.576   7.743   6.267  0.5799  0.4262  0.1473
   18CHTO   H88 7489   5.590   7.734   6.159 -0.1981  1.8216 -0.0835
   18CHTO   C53 7490   5.583   7.893   6.294 -0.8000 -0.0112  0.6863
   18CHTO   O72 7491   5.719   7.934   6.303 -0.0137 -0.1161  0.1679
   18CHTO  H199 7492   5.736   8.021   6.272  0.6028 -0.2712  0.0554
   18CHTO   O22 7493   5.260   7.552   6.219  0.2566 -0.3389 -0.0290
   18CHTO   C31 7494   5.204   7.567   6.083 -0.2695  0.1039 -0.2740
   18CHTO   H59 7495   5.095   7.562   6.102 -0.1283  0.6731  0.7590
   18CHTO   C29 7496   5.236   7.704   6.024 -0.3408 -0.5141 -0.1777
   18CHTO   H57 7497   5.346   7.717   6.024 -0.1196 -1.7517 -3.8087
   18CHTO   O21 7498   5.185   7.813   6.113 -0.2328 -0.2801  0.2819
   18CHTO   H37 7499   5.096   7.831   6.092 -0.2392 -0.0605  0.5104
   18CHTO   C27 7500   5.188   7.723   5.871 -0.7657  0.5739 -0.1317
   18CHTO   H55 7501   5.079   7.713   5.870 -0.8127  1.0265  0.2936
   18CHTO    N5 7502   5.222   7.856   5.810 -0.3478  0.3574  0.1856
   18CHTO   H43 7503   5.137   7.920   5.788  0.1637  1.2569  0.7620
   18CHTO   H44 7504   5.293   7.843   5.729 -0.1834 -1.9183  0.6700
   18CHTO   C25 7505   5.257   7.605   5.796 -0.3523  0.1085  0.5829
   18CHTO   H53 7506   5.367   7.599   5.808 -0.4006 -1.3468  0.3658
   18CHTO   O17 7507   5.196   7.488   5.839 -0.5000 -0.2649 -0.0044
   18CHTO   C32 7508   5.233   7.450   5.978 -0.4117  0.0642  0.3351
   18CHTO   H60 7509   5.341   7.435   5.969 -0.8479 -2.0782 -2.1803
   18CHTO   C36 7510   5.168   7.320   6.029 -0.1898  0.2166  0.0184
   18CHTO   O25 7511   5.190   7.208   5.949 -0.4814 -0.2741  0.3349
   18CHTO   H40 7512   5.122   7.189   5.887 -1.4521  2.1522  0.6008
   18CHTO   O15 7513   5.245   7.606   5.648 -0.1596 -0.4224 -0.2656
   18CHTO   C19 7514   5.298   7.594   5.513  0.0576  0.4501  0.5398
   18CHTO   H47 7515   5.269   7.494   5.480  1.8024  0.5654 -1.4912
   18CHTO   C20 7516   5.235   7.697   5.412  0.1628  0.9443 -0.3017
   18CHTO   H48 7517   5.242   7.802   5.444 -0.3445  1.4237 -1.7043
   18CHTO   O19 7518   5.096   7.664   5.408 -0.1941 -0.0928  0.3544
   18CHTO   H35 7519   5.054   7.689   5.488 -2.2219 -0.5870 -0.5357
   18CHTO   C21 7520   5.293   7.689   5.266 -0.1770  0.5342  0.7152
   18CHTO   H49 7521   5.261   7.594   5.223 -0.1404  0.9475 -0.2296
   18CHTO    N4 7522   5.252   7.794   5.169 -0.9197  0.3641 -0.5197
   18CHTO   H41 7523   5.144   7.802   5.164 -0.8856  0.6951 -0.7375
   18CHTO   H42 7524   5.287   7.764   5.071 -1.9561  1.7447 -1.3316
   18CHTO   C22 7525   5.447   7.677   5.276  0.0690 -0.0171  0.1234
   18CHTO   H50 7526   5.480   7.778   5.298  2.7281 -0.6046 -0.8816
   18CHTO   O14 7527   5.497   7.579   5.367  0.6172 -0.4143  0.0629
   18CHTO   C23 7528   5.458   7.588   5.509  0.5893  0.7059 -0.5115
   18CHTO   H51 7529   5.503   7.676   5.558  1.0506  0.3811 -0.3608
   18CHTO   C34 7530   5.505   7.462   5.577  0.6695 -0.0226 -0.6356
   18CHTO   O23 7531   5.649   7.449   5.556 -0.4565  0.3268 -0.3234
   18CHTO   H38 7532   5.687   7.488   5.632 -0.6833 -1.0261  0.5029
   18CHTO   O16 7533   5.513   7.628   5.159  0.6577  0.0113  0.4935
   18CHTO   C24 7534   5.643   7.675   5.122 -0.2886 -0.2348  0.5376
   18CHTO   H52 7535   5.693   7.727   5.203  1.0513 -1.8937  0.7954
   18CHTO   C26 7536   5.632   7.777   5.007  0.4908  0.3171  0.2979
   18CHTO   H54 7537   5.560   7.739   4.931  1.5980 -1.4114  0.0970
   18CHTO   O20 7538   5.578   7.895   5.078  0.5039 -0.1402 -0.0336
   18CHTO   H36 7539   5.488   7.905   5.051  0.6827  3.1073  0.3249
   18CHTO   C30 7540   5.767   7.814   4.936  0.1428 -0.2331 -0.2478
   18CHTO   H58 7541   5.828   7.878   5.001  1.1104 -1.7861  0.3914
   18CHTO    N6 7542   5.751   7.893   4.808  0.2627  0.2656 -0.7449
   18CHTO   H45 7543   5.736   7.998   4.829 -1.2927 -0.1247  0.2611
   18CHTO   H46 7544   5.832   7.885   4.738  1.3849  1.3966  0.4018
   18CHTO   C33 7545   5.846   7.681   4.916 -0.4938  0.4804 -0.1919
   18CHTO   H61 7546   5.791   7.615   4.847  2.1222 -4.1578  1.9329
   18CHTO   O18 7547   5.852   7.616   5.042 -0.2032  0.4023 -0.3844
   18CHTO   C28 7548   5.732   7.558   5.082 -1.0415 -0.0493  0.3146
   18CHTO   H56 7549   5.678   7.508   5.001 -0.4315  0.8596 -0.6661
   18CHTO   C35 7550   5.761   7.462   5.198  0.6123  0.2802  0.2020
   18CHTO   O24 7551   5.874   7.373   5.177  0.0105 -0.2004  0.1202
   18CHTO   H39 7552   5.929   7.383   5.253 -1.1442 -1.4413  1.1451
   18CHTO    O9 7553   5.978   7.710   4.865 -0.2652 -0.5843  0.0735
   18CHTO   C13 7554   6.045   7.588   4.761  0.4326 -0.1129  0.4038
   18CHTO   H26 7555   6.038   7.631   4.659 -1.7000 -1.2850  0.0277
   18CHTO   C11 7556   5.976   7.445   4.769  0.6550 -0.7954  0.9502
   18CHTO   H24 7557   5.874   7.467   4.733  1.5159  3.0314  0.6803
   18CHTO    O8 7558   5.970   7.406   4.908 -0.5589  0.3133  0.2840
   18CHTO    H3 7559   5.906   7.449   4.961 -3.3758  0.3446 -2.9492
   18CHTO    C9 7560   6.043   7.344   4.664  0.6424 -0.1712  0.2287
   18CHTO   H22 7561   6.041   7.394   4.566  1.6969  1.3736  0.9731
   18CHTO    N2 7562   5.952   7.226   4.660  0.1932  0.5111  0.0670
   18CHTO   H10 7563   5.851   7.247   4.627  0.1958  0.3720 -0.0346
   18CHTO   H11 7564   5.956   7.179   4.758  1.3756  0.7969  0.1628
   18CHTO    C7 7565   6.184   7.323   4.714 -0.0711 -0.4600 -0.2799
   18CHTO   H20 7566   6.240   7.314   4.619  0.7755  4.0244 -0.3306
   18CHTO    O4 7567   6.243   7.434   4.778 -0.1391  0.5154 -0.0783
   18CHTO   C14 7568   6.203   7.569   4.768 -0.3487  1.1188 -0.2892
   18CHTO   H27 7569   6.247   7.596   4.670 -1.3322 -0.4755 -1.1964
   18CHTO   C18 7570   6.264   7.660   4.877 -0.5396 -0.0702 -0.4450
   18CHTO   O13 7571   6.233   7.619   5.010  0.2692 -0.0566 -0.2775
   18CHTO    H7 7572   6.285   7.542   5.025 -1.5403 -1.4603 -1.0127
   18CHTO    O2 7573   6.197   7.179   4.821  0.5583  0.4083  0.7671
   18CHTO    C1 7574   6.326   7.160   4.892 -0.7008 -0.9418 -0.2393
   18CHTO   H14 7575   6.385   7.253   4.882 -1.1388 -0.5957  0.3397
   18CHTO    C2 7576   6.408   7.046   4.841 -0.7484  0.0490 -0.1518
   18CHTO   H15 7577   6.351   6.960   4.879  0.9243 -1.2198 -0.4552
   18CHTO    O6 7578   6.418   7.042   4.699 -0.4705 -0.4368 -0.5402
   18CHTO    H1 7579   6.466   7.115   4.664 -1.0898  0.2310 -0.0318
   18CHTO    C3 7580   6.550   7.040   4.922 -0.3224  0.3913  0.3756
   18CHTO   H16 7581   6.601   7.136   4.903  0.5264 -0.1740 -0.2218
   18CHTO    N1 7582   6.646   6.933   4.876  0.4420 -0.0160  0.2399
   18CHTO    H8 7583   6.621   6.834   4.910  1.6005 -0.2142  0.5274
   18CHTO    H9 7584   6.669   6.947   4.771  1.1098 -2.3659  0.0469
   18CHTO    C4 7585   6.530   7.029   5.073  0.8009  0.1121  0.0937
   18CHTO   H17 7586   6.508   6.925   5.099 -2.2527  0.7271  0.1796
   18CHTO    O1 7587   6.431   7.128   5.119  0.7607 -0.1239  0.4439
   18CHTO    C5 7588   6.305   7.134   5.049 -0.1065 -0.0239  0.3688
   18CHTO   H18 7589   6.249   7.040   5.052  1.3666 -0.9945 -1.6432
   18CHTO   C16 7590   6.220   7.249   5.116  0.4815  0.5949 -0.6662
   18CHTO   O11 7591   6.300   7.367   5.131  0.3935  0.0640 -0.7795
   18CHTO    H5 7592   6.238   7.432   5.158 -0.2655 -0.0538 -1.9917
   18CHTO    O3 7593   6.640   7.081   5.149 -0.3929  0.1238  0.2000
   18CHTO    C6 7594   6.645   7.025   5.287 -0.0659 -1.3030  0.1397
   18CHTO   H19 7595   6.556   6.974   5.323 -0.4470 -1.2220 -0.6621
   18CHTO    C8 7596   6.766   6.917   5.296  0.1278  0.1848  0.0025
   18CHTO   H21 7597   6.863   6.960   5.273 -0.4874  2.1081  0.9027
   18CHTO    O7 7598   6.727   6.810   5.211  0.4598  0.4063 -0.4606
   18CHTO    H2 7599   6.646   6.767   5.233  1.0107 -1.1710 -1.3857
   18CHTO   C12 7600   6.778   6.852   5.441  0.1839 -0.4417  0.5005
   18CHTO   H25 7601   6.687   6.789   5.454 -0.4129 -0.5520 -3.6439
   18CHTO    N3 7602   6.883   6.747   5.459 -0.4840  0.1752 -0.2260
   18CHTO   H12 7603   6.960   6.784   5.525  0.9688  0.5057 -2.0485
   18CHTO   H13 7604   6.929   6.726   5.363  0.0293  1.7001 -0.3231
   18CHTO   C15 7605   6.775   6.969   5.549 -0.1685  0.1581 -0.1042
   18CHTO   H28 7606   6.875   7.010   5.553  0.2432 -0.7679 -0.7468
   18CHTO   O10 7607   6.750   6.917   5.704 -0.4998  0.1313  0.6053
   18CHTO    H4 7608   6.697   6.840   5.707 -0.2954  0.0309  2.0854
   18CHTO    O5 7609   6.671   7.069   5.520  0.4769 -0.2411  0.7072
   18CHTO   C10 7610   6.679   7.141   5.395 -0.0545  0.5093  0.6125
   18CHTO   H23 7611   6.778   7.183   5.380  0.0064 -0.7095 -2.8585
   18CHTO   C17 7612   6.572   7.248   5.387 -0.0910  0.2370  0.2964
   18CHTO   O12 7613   6.623   7.352   5.301 -0.0376 -0.0970 -0.0476
   18CHTO    H6 7614   6.653   7.424   5.354  0.7728 -0.6885  0.2910
   19CHTO  H203 7615   6.776   8.355   6.871  0.0772 -0.7397  1.4412
   19CHTO   O82 7616   6.753   8.274   6.829 -0.0317 -0.0383  0.1479
   19CHTO  C123 7617   6.637   8.284   6.743  0.1152 -0.0235 -0.7474
   19CHTO  H227 7618   6.659   8.353   6.659  1.9635  0.7312  0.3351
   19CHTO   O77 7619   6.631   8.153   6.691 -0.0018  0.6791  0.0801
   19CHTO  C118 7620   6.520   8.104   6.610  0.1146  0.2522 -0.1279
   19CHTO  H222 7621   6.518   8.154   6.512  1.2389 -0.1725 -0.3758
   19CHTO  C125 7622   6.539   7.944   6.591 -0.2761 -0.5960 -0.6452
   19CHTO   O84 7623   6.536   7.877   6.720  0.1963 -0.2730 -0.3503
   19CHTO  H205 7624   6.605   7.921   6.766 -0.0094 -0.2660 -0.0435
   19CHTO  C114 7625   6.396   8.131   6.691 -0.6514  0.7120  0.0693
   19CHTO  H218 7626   6.401   8.071   6.782  1.6844 -0.8624 -1.0740
   19CHTO  C116 7627   6.379   8.276   6.751 -0.1081 -0.0193 -0.5379
   19CHTO  H220 7628   6.353   8.351   6.673  1.9368  0.3460 -0.8934
   19CHTO   O79 7629   6.267   8.276   6.844 -0.2371  0.1478  0.5626
   19CHTO  H201 7630   6.202   8.219   6.809  0.4047 -0.0924 -0.2388
   19CHTO  C120 7631   6.507   8.317   6.825  0.3716  0.7426  0.6238
   19CHTO  H224 7632   6.502   8.260   6.920 -2.4427 -2.2780 -1.2484
   19CHTO   N21 7633   6.518   8.461   6.858 -0.0610  0.0083  0.1663
   19CHTO  H211 7634   6.485   8.476   6.959  1.4974 -1.2265  0.8735
   19CHTO  H212 7635   6.477   8.526   6.782  0.1432  1.2794  1.1213
   19CHTO   O75 7636   6.280   8.087   6.605  0.2020  0.4618  0.0200
   19CHTO  C112 7637   6.167   8.006   6.695  0.1090  0.7928  0.6368
   19CHTO  H216 7638   6.137   8.066   6.783 -2.5155  0.4787  0.0199
   19CHTO   O73 7639   6.227   7.879   6.733 -0.2929  0.3712  0.2569
   19CHTO  C113 7640   6.130   7.800   6.811  0.3135 -0.3044 -1.2203
   19CHTO  H217 7641   6.107   7.863   6.900  1.0891 -2.5503  0.6216
   19CHTO  C124 7642   6.198   7.673   6.872 -0.3616 -0.1805 -0.2757
   19CHTO   O83 7643   6.312   7.695   6.962 -0.1848 -0.1952 -0.1472
   19CHTO  H204 7644   6.353   7.618   6.996  3.5714  0.8669 -1.9270
   19CHTO  C109 7645   5.997   7.776   6.736  0.4628 -0.1616 -0.6621
   19CHTO  H213 7646   6.017   7.720   6.643 -0.0639 -2.2609  0.4480
   19CHTO  C110 7647   5.937   7.908   6.693 -0.0111 -0.6657 -0.1556
   19CHTO  H214 7648   5.921   7.958   6.789  0.8985 -1.4522  0.4252
   19CHTO   O78 7649   5.814   7.881   6.625  0.4038 -0.7447  0.2556
   19CHTO  H200 7650   5.771   7.962   6.603  2.5667  0.7655  1.3520
   19CHTO  C111 7651   6.038   7.987   6.606  0.2736  0.2909  0.0850
   19CHTO  H215 7652   6.056   7.926   6.516  0.6453  2.2450 -1.1889
   19CHTO   N19 7653   5.984   8.114   6.557  0.2503 -0.4548 -0.7622
   19CHTO  H207 7654   6.042   8.164   6.481  0.0742  0.5113 -0.2645
   19CHTO  H208 7655   5.886   8.100   6.512  0.0955 -2.1382  0.0559
   19CHTO   O74 7656   5.902   7.696   6.821 -0.5117 -0.0690  0.7882
   19CHTO  C115 7657   5.811   7.586   6.734  0.1390  0.4938  0.4772
   19CHTO  H219 7658   5.742   7.635   6.666  2.1265 -0.2000 -2.1011
   19CHTO   O76 7659   5.905   7.488   6.645 -0.2259 -0.2178  0.1440
   19CHTO  C122 7660   5.972   7.379   6.706 -0.5569  0.0956  0.1101
   19CHTO  H226 7661   6.060   7.425   6.751 -1.0957  1.2136  0.0562
   19CHTO  C126 7662   6.026   7.286   6.589 -0.2549  0.5728 -0.3119
   19CHTO   O85 7663   6.110   7.348   6.486  0.0067  0.5458 -0.4008
   19CHTO  H206 7664   6.137   7.284   6.423 -0.1343  0.1144 -0.0332
   19CHTO  C121 7665   5.887   7.301   6.819  0.4983 -0.0018  0.3760
   19CHTO  H225 7666   5.888   7.195   6.785  1.7056  0.5838 -1.4889
   19CHTO   O81 7667   5.946   7.296   6.954  0.7234 -0.6112 -0.0281
   19CHTO  H202 7668   5.941   7.385   6.984 -1.3359 -0.2737 -1.3107
   19CHTO  C119 7669   5.732   7.352   6.820  0.1226  0.5209 -0.0670
   19CHTO  H223 7670   5.694   7.336   6.719  1.4798  1.1505 -0.6890
   19CHTO  C117 7671   5.720   7.507   6.845  0.0744  0.1779 -0.0570
   19CHTO  H221 7672   5.752   7.549   6.940 -1.9697  0.3266  0.5858
   19CHTO   N20 7673   5.582   7.563   6.837  0.2127 -0.3587  0.2837
   19CHTO  H209 7674   5.518   7.539   6.921  0.4275 -1.1802  0.2157
   19CHTO  H210 7675   5.535   7.539   6.743  1.3866 -3.0181  0.3404
   19CHTO   O80 7676   5.641   7.250   6.913 -0.2234  0.1481  0.2617
   19CHTO  C103 7677   5.596   7.131   6.865  0.1142  1.2313 -0.0943
   19CHTO  H190 7678   5.613   7.115   6.759  2.0221  1.3241  0.1767
   19CHTO  C101 7679   5.653   7.004   6.945 -0.2002  1.1647 -0.4512
   19CHTO  H188 7680   5.628   7.027   7.048  1.1027  0.9264 -0.0717
   19CHTO   O68 7681   5.813   6.982   6.917 -0.0900 -0.2561 -0.3061
   19CHTO  H168 7682   5.825   6.889   6.916  0.2136 -0.2218  0.1184
   19CHTO   C99 7683   5.563   6.872   6.911  0.7679 -0.2156 -0.4063
   19CHTO  H186 7684   5.576   6.847   6.804 -2.0065  0.7957 -1.0314
   19CHTO   N17 7685   5.609   6.747   6.984  0.6345 -0.3089 -0.0521
   19CHTO  H174 7686   5.577   6.656   6.936 -0.4281  0.8844 -1.7013
   19CHTO  H175 7687   5.710   6.753   7.022  1.4028 -0.4306 -2.0022
   19CHTO   C97 7688   5.408   6.905   6.928  0.0810  0.4838  0.0103
   19CHTO  H184 7689   5.386   6.923   7.034  0.9007  1.3024  0.0540
   19CHTO   O64 7690   5.376   7.021   6.849 -0.2758  0.3222  0.0865
   19CHTO  C104 7691   5.439   7.137   6.893 -0.6094  0.7882 -0.0938
   19CHTO  H191 7692   5.420   7.139   7.000  1.2965  2.1416  0.2454
   19CHTO  C108 7693   5.355   7.249   6.826 -0.0740  0.0633  0.1396
   19CHTO   O71 7694   5.381   7.272   6.691 -0.0442  0.3738  0.1580
   19CHTO  H171 7695   5.316   7.227   6.642  1.7971 -0.7865 -1.2735
   19CHTO   O62 7696   5.327   6.796   6.879 -0.3350 -0.3803 -0.2890
   19CHTO   C91 7697   5.189   6.811   6.902 -0.1231  0.2530 -0.2180
   19CHTO  H178 7698   5.165   6.905   6.951  1.8668  0.5049  0.3136
   19CHTO   C92 7699   5.144   6.695   6.994  0.2691 -0.5210  0.2381
   19CHTO  H179 7700   5.219   6.700   7.075  0.7283  2.7739 -0.3424
   19CHTO   O66 7701   5.016   6.727   7.043  0.0802 -0.1073 -0.0493
   19CHTO  H166 7702   5.019   6.796   7.106  1.6152  0.8327 -1.0982
   19CHTO   C93 7703   5.143   6.546   6.917 -0.0170  0.2402 -0.2287
   19CHTO  H180 7704   5.059   6.488   6.960  0.6232  0.5160  1.4453
   19CHTO   N16 7705   5.268   6.467   6.931 -0.1079 -0.2137 -0.1546
   19CHTO  H172 7706   5.285   6.443   7.035  0.1996  1.2407  0.1423
   19CHTO  H173 7707   5.269   6.387   6.859  2.5434 -0.0565 -0.3395
   19CHTO   C94 7708   5.118   6.566   6.761  0.1003  0.5345  0.8370
   19CHTO  H181 7709   5.213   6.572   6.707  0.6243 -0.6425  1.6071
   19CHTO   O61 7710   5.034   6.683   6.744  0.1814 -0.2488  1.1600
   19CHTO   C95 7711   5.100   6.809   6.764 -0.5858 -0.7185  0.1012
   19CHTO  H182 7712   5.178   6.821   6.688  1.3571  0.4941  2.2149
   19CHTO  C106 7713   4.996   6.927   6.762  0.4304 -0.4539  0.0868
   19CHTO   O69 7714   4.979   6.993   6.633  0.1491  0.0012  0.1319
   19CHTO  H169 7715   4.943   7.078   6.654 -0.3873 -0.4440  1.0354
   19CHTO   O63 7716   5.037   6.452   6.710  0.2319 -0.4308  0.0131
   19CHTO   C96 7717   5.098   6.402   6.573  0.2412  0.5588  0.8086
   19CHTO  H183 7718   5.200   6.372   6.595  1.7797  3.2334 -2.2729
   19CHTO   C98 7719   5.088   6.512   6.461 -0.4882 -0.3574 -0.2068
   19CHTO  H185 7720   5.105   6.607   6.515  2.3353 -0.6254 -0.5429
   19CHTO   O67 7721   5.200   6.496   6.368  0.6193  0.7102  0.1265
   19CHTO  H167 7722   5.284   6.505   6.407  0.7119 -1.2855  0.4748
   19CHTO  C102 7723   4.953   6.499   6.379 -0.6198 -0.0531  0.5522
   19CHTO  H189 7724   4.966   6.558   6.287  1.0491  1.5249  1.7609
   19CHTO   N18 7725   4.831   6.565   6.444 -0.0464  0.1515 -0.0767
   19CHTO  H176 7726   4.849   6.565   6.550  0.6544  1.4127 -0.1810
   19CHTO  H177 7727   4.829   6.669   6.413 -1.4859 -0.3865 -1.8504
   19CHTO  C105 7728   4.921   6.352   6.335  0.1146  0.2261 -0.0116
   19CHTO  H192 7729   4.820   6.324   6.364  0.3425 -0.3716  0.2051
   19CHTO   O65 7730   5.011   6.253   6.393 -0.1445  0.5579 -0.2355
   19CHTO  C100 7731   5.019   6.265   6.533  0.0790  0.4144 -0.0282
   19CHTO  H187 7732   4.921   6.265   6.583 -0.2748  2.9870 -0.6332
   19CHTO  C107 7733   5.095   6.136   6.582 -0.4016 -0.5048  0.3555
   19CHTO   O70 7734   5.022   6.015   6.546 -0.1780  0.6964 -0.4515
   19CHTO  H170 7735   4.930   6.031   6.554 -0.5812 -0.4412 -2.2516
   19CHTO   O57 7736   4.934   6.355   6.179 -0.1280  0.3474  0.0185
   19CHTO   C85 7737   4.833   6.309   6.088 -0.1339 -0.6006 -0.3325
   19CHTO  H157 7738   4.746   6.287   6.153 -0.5119  0.2952 -0.5407
   19CHTO   C83 7739   4.882   6.180   6.022  0.5108 -0.0757 -1.1690
   19CHTO  H155 7740   4.903   6.110   6.104  0.9630  2.4307  0.9409
   19CHTO   O56 7741   5.007   6.210   5.951 -0.3819  0.1231 -0.0439
   19CHTO  H135 7742   5.052   6.128   5.955 -0.2037  0.2146 -0.1784
   19CHTO   C81 7743   4.767   6.123   5.932 -0.0428 -0.1360  1.0957
   19CHTO  H153 7744   4.682   6.083   5.988  0.0987 -0.3855  1.1366
   19CHTO   N14 7745   4.812   5.991   5.869 -0.9396  0.3675  0.2842
   19CHTO  H141 7746   4.845   5.923   5.945 -0.1332 -0.5737 -0.8779
   19CHTO  H142 7747   4.732   5.948   5.813  1.8432 -1.8723 -2.1900
   19CHTO   C79 7748   4.715   6.226   5.822 -1.0733 -0.4344 -0.2362
   19CHTO  H151 7749   4.623   6.187   5.777 -0.1492 -0.8716 -1.7674
   19CHTO   O52 7750   4.687   6.353   5.892 -0.3348 -0.4100 -0.3641
   19CHTO   C86 7751   4.799   6.400   5.976 -0.0539  0.0255 -0.4241
   19CHTO  H158 7752   4.883   6.408   5.903 -2.4612  2.1069 -3.0955
   19CHTO   C90 7753   4.773   6.547   6.026 -0.2122  0.3859  0.0672
   19CHTO   O60 7754   4.654   6.546   6.105  0.0501 -0.3944  0.0656
   19CHTO  H138 7755   4.654   6.619   6.163 -0.3782 -0.1076 -0.2919
   19CHTO   O50 7756   4.802   6.266   5.714  0.2337 -0.3182 -0.0876
   19CHTO   C73 7757   4.817   6.292   5.571 -0.1419  0.3336 -0.1559
   19CHTO  H145 7758   4.786   6.205   5.511  3.6714 -0.7992 -0.6113
   19CHTO   C74 7759   4.960   6.320   5.552  0.3832  0.4571 -0.7457
   19CHTO  H146 7760   5.009   6.232   5.596  2.6197  3.0987  2.2842
   19CHTO   O54 7761   4.995   6.318   5.410  0.2490  0.1802  0.2381
   19CHTO  H133 7762   5.080   6.356   5.398  0.3298 -0.4629 -1.3364
   19CHTO   C75 7763   5.007   6.456   5.623 -0.5913 -0.6320  0.0192
   19CHTO  H147 7764   4.990   6.452   5.732  1.5148 -0.0803  0.3979
   19CHTO   N13 7765   5.151   6.491   5.604 -0.1366  0.3136  0.1522
   19CHTO  H139 7766   5.207   6.438   5.680  1.6516  0.6141 -0.9358
   19CHTO  H140 7767   5.190   6.499   5.504  0.6005 -0.4803  0.3684
   19CHTO   C76 7768   4.907   6.572   5.571  0.1305 -0.3138  0.2948
   19CHTO  H148 7769   4.934   6.589   5.467 -1.0231  1.0125  0.1899
   19CHTO   O49 7770   4.769   6.535   5.588  0.0427 -0.3439  0.6688
   19CHTO   C77 7771   4.732   6.413   5.523  0.0675  0.0771 -0.5904
   19CHTO  H149 7772   4.754   6.430   5.418  0.5802  0.2937 -0.4499
   19CHTO   C88 7773   4.577   6.383   5.545 -0.5083 -0.0203  0.2515
   19CHTO   O58 7774   4.508   6.471   5.497 -0.2857 -0.8341  0.0953
   19CHTO  H136 7775   4.509   6.547   5.552  0.1325 -0.3516 -0.5707
   19CHTO   O51 7776   4.938   6.704   5.661 -0.2442 -0.3307 -0.3713
   19CHTO   C78 7777   4.926   6.842   5.580  0.0907  0.0556 -0.6425
   19CHTO  H150 7778   4.887   6.823   5.478  1.3190 -1.6345 -0.8179
   19CHTO   C80 7779   5.050   6.932   5.580 -0.2114  0.1618  0.5753
   19CHTO  H152 7780   5.096   6.936   5.681 -0.3632 -0.7311  0.6838
   19CHTO   O55 7781   5.148   6.863   5.498  0.8160  0.1681 -0.0501
   19CHTO  H134 7782   5.111   6.781   5.470 -0.7168  0.4842  0.9840
   19CHTO   C84 7783   5.020   7.078   5.520 -0.0215  0.1242 -0.1988
   19CHTO  H156 7784   4.999   7.062   5.414  0.8321  0.6839 -0.4599
   19CHTO   N15 7785   5.141   7.170   5.522  0.8417 -0.2175  0.5892
   19CHTO  H143 7786   5.167   7.205   5.425 -1.5340  0.6023  0.2197
   19CHTO  H144 7787   5.229   7.153   5.581  0.1873 -3.4968  0.6947
   19CHTO   C87 7788   4.891   7.140   5.583 -0.1886  0.2913  1.3584
   19CHTO  H159 7789   4.904   7.167   5.688 -0.6936 -0.8323  1.7180
   19CHTO   O53 7790   4.787   7.048   5.565  0.4044 -0.2377 -0.4407
   19CHTO   C82 7791   4.810   6.925   5.642  1.1340  0.4272  0.6639
   19CHTO  H154 7792   4.827   6.956   5.745 -0.3739 -0.5104  1.2222
   19CHTO   C89 7793   4.671   6.850   5.637 -0.1178 -0.2232  0.3794
   19CHTO   O59 7794   4.561   6.937   5.662  0.3304  0.1298  0.0330
   19CHTO  H137 7795   4.538   6.941   5.753 -1.0103 -0.8958 -0.2482
   19CHTO   O45 7796   4.840   7.282   5.482 -0.1751  0.2124  0.2604
   19CHTO   C67 7797   4.742   7.366   5.548  0.0442  1.0038 -0.2138
   19CHTO  H124 7798   4.695   7.297   5.617  0.3682  2.3659  1.3804
   19CHTO   C65 7799   4.811   7.477   5.615 -0.3759 -0.5394  0.1928
   19CHTO  H122 7800   4.896   7.509   5.555  0.4378  0.4031  1.8145
   19CHTO   O44 7801   4.875   7.426   5.734 -0.2361 -0.3280  0.1274
   19CHTO  H102 7802   4.942   7.365   5.709  0.1847 -0.9582  2.6939
   19CHTO   C63 7803   4.722   7.609   5.633  0.5075  0.2173  0.2073
   19CHTO  H120 7804   4.729   7.664   5.539  1.1735 -1.8763 -0.9862
   19CHTO   N11 7805   4.765   7.713   5.735 -0.5359 -0.1336  0.3524
   19CHTO  H108 7806   4.728   7.813   5.722 -0.9040 -0.5562 -2.0398
   19CHTO  H109 7807   4.871   7.708   5.743 -0.4859  0.9646  0.4479
   19CHTO   C61 7808   4.572   7.564   5.647 -0.5314 -0.2523 -0.0359
   19CHTO  H118 7809   4.517   7.659   5.642 -0.2280 -0.0488  0.4723
   19CHTO   O40 7810   4.531   7.485   5.524 -0.0247  0.0080  0.0465
   19CHTO   C68 7811   4.634   7.406   5.454 -0.4066  0.1078  0.4234
   19CHTO  H125 7812   4.670   7.468   5.369 -1.6315  1.0434  0.5651
   19CHTO   C72 7813   4.567   7.285   5.389  0.1827 -0.5593 -0.1300
   19CHTO   O48 7814   4.525   7.183   5.476 -0.3093 -0.6926 -0.0986
   19CHTO  H105 7815   4.588   7.115   5.468  0.7350  0.4891 -2.3915
   19CHTO   O38 7816   4.539   7.497   5.769 -0.4349  0.0945 -0.2823
   19CHTO   C55 7817   4.424   7.409   5.777  0.0163 -0.1226  0.5066
   19CHTO  H112 7818   4.414   7.355   5.681 -1.8533  0.4281  0.3781
   19CHTO   C56 7819   4.290   7.483   5.809  0.0980  0.3933 -0.5913
   19CHTO  H113 7820   4.292   7.514   5.915  0.1102 -0.1387 -0.4365
   19CHTO   O42 7821   4.281   7.601   5.723 -0.4091  0.5930 -0.5854
   19CHTO  H100 7822   4.203   7.652   5.734 -0.1444  1.0805 -0.9410
   19CHTO   C57 7823   4.177   7.380   5.791 -0.1456 -0.4651 -0.0735
   19CHTO  H114 7824   4.180   7.354   5.686  0.0774 -1.1720  0.1034
   19CHTO   N10 7825   4.048   7.448   5.821 -0.5047  0.0695 -0.6237
   19CHTO  H106 7826   3.976   7.380   5.865  1.5788 -0.2621  2.4782
   19CHTO  H107 7827   4.005   7.488   5.731 -0.2781  0.4727 -0.5518
   19CHTO   C58 7828   4.198   7.249   5.873 -0.1235 -0.5228  0.1324
   19CHTO  H115 7829   4.169   7.263   5.980 -1.9617 -0.2602 -0.3773
   19CHTO   O37 7830   4.333   7.199   5.876  0.0391  0.1315  0.7354
   19CHTO   C59 7831   4.437   7.295   5.883  0.2715 -0.0774 -0.2624
   19CHTO  H116 7832   4.444   7.336   5.984  0.7914  0.6250 -0.5831
   19CHTO   C70 7833   4.564   7.208   5.872 -0.2087 -0.1261  0.2257
   19CHTO   O46 7834   4.691   7.274   5.900  0.5218  0.5075 -0.2017
   19CHTO  H103 7835   4.746   7.256   5.827 -0.9426  1.3279 -1.5409
   19CHTO   O39 7836   4.090   7.131   5.815 -0.3253 -0.1084  0.3033
   19CHTO   C60 7837   4.099   7.094   5.673  0.2425 -1.1743 -0.0967
   19CHTO  H117 7838   4.151   7.171   5.616  0.5930 -1.1284  0.2811
   19CHTO   C62 7839   4.168   6.951   5.671 -0.1298  0.0367 -0.0212
   19CHTO  H119 7840   4.273   6.970   5.702 -0.3530  1.0651  0.1441
   19CHTO   O43 7841   4.101   6.865   5.767  0.3067  0.0218 -0.3654
   19CHTO  H101 7842   4.083   6.913   5.845 -2.1516  0.0755 -0.9221
   19CHTO   C66 7843   4.175   6.891   5.530 -0.1025  0.3829 -0.3201
   19CHTO  H123 7844   4.234   6.957   5.465 -0.3037  1.0675  0.1838
   19CHTO   N12 7845   4.247   6.764   5.536 -0.5612  0.4172  0.4077
   19CHTO  H110 7846   4.176   6.684   5.526  1.1401 -1.3148  1.7121
   19CHTO  H111 7847   4.320   6.752   5.457 -0.3223  0.1751  0.6636
   19CHTO   C69 7848   4.030   6.877   5.485 -0.0465  0.9313  0.0911
   19CHTO  H126 7849   3.968   6.816   5.554  0.4818  0.7586  0.4204
   19CHTO   O41 7850   3.988   7.020   5.478  0.6029 -0.1324 -0.2532
   19CHTO   C64 7851   3.956   7.082   5.614  0.2655  0.2359 -0.7415
   19CHTO  H121 7852   3.891   7.024   5.682  0.7439  0.5991  0.0367
   19CHTO   C71 7853   3.889   7.216   5.590 -0.3811 -0.2324  0.2392
   19CHTO   O47 7854   3.806   7.261   5.699 -0.0407  0.2636 -0.2315
   19CHTO  H104 7855   3.761   7.340   5.674 -0.3499 -0.8496 -3.5865
   19CHTO   O34 7856   4.014   6.817   5.354  0.4955 -0.0953 -0.2482
   19CHTO   C49 7857   3.957   6.775   5.222  0.0805  0.6548  0.2147
   19CHTO   H91 7858   3.850   6.796   5.223  0.1752  1.2181 -0.8705
   19CHTO   C47 7859   3.975   6.623   5.204 -0.2414 -1.1163 -0.1232
   19CHTO   H89 7860   3.912   6.596   5.116 -1.8646  0.7536  0.4346
   19CHTO   O33 7861   3.922   6.548   5.315  0.3780 -0.1610 -0.0149
   19CHTO   H70 7862   3.832   6.562   5.336 -0.0049 -1.0532 -0.9945
   19CHTO   C45 7863   4.124   6.575   5.183  0.6524 -0.3634  0.4496
   19CHTO   H87 7864   4.165   6.566   5.285 -1.5099  1.6944  1.5510
   19CHTO    N8 7865   4.131   6.440   5.113  0.5411 -0.1873 -0.2600
   19CHTO   H75 7866   4.230   6.401   5.133  0.3886 -0.9190 -0.9005
   19CHTO   H76 7867   4.061   6.373   5.161 -1.2800  2.6190  1.1423
   19CHTO   C43 7868   4.208   6.697   5.112 -0.5947 -0.2639 -0.0364
   19CHTO   H85 7869   4.239   6.752   5.201 -0.2199 -0.4002 -0.0803
   19CHTO   O29 7870   4.124   6.777   5.033  0.5209 -0.5775  0.3863
   19CHTO   C50 7871   4.019   6.851   5.099 -0.5604  0.0872 -0.2318
   19CHTO   H92 7872   4.059   6.949   5.127  2.2781 -1.6035  1.8733
   19CHTO   C54 7873   3.914   6.892   4.992  0.1208  0.1396 -0.3203
   19CHTO   O36 7874   3.868   6.779   4.914  0.0318  0.5737 -0.0318
   19CHTO   H72 7875   3.780   6.768   4.944 -0.7282 -0.3131 -2.4549
   19CHTO   O27 7876   4.334   6.657   5.053 -0.2473 -0.5061 -0.2465
   19CHTO   C37 7877   4.439   6.727   4.997 -0.1529  1.1562  0.0759
   19CHTO   H79 7878   4.488   6.674   4.914 -1.4197  2.0486 -1.2705
   19CHTO   C38 7879   4.397   6.859   4.933 -0.0373  0.1731  0.1777
   19CHTO   H80 7880   4.330   6.913   5.003 -0.9368 -0.3934 -0.2328
   19CHTO   O31 7881   4.308   6.829   4.824  0.6098 -0.1200  0.3155
   19CHTO   H68 7882   4.217   6.811   4.840  0.7474 -1.3617 -0.2461
   19CHTO   C39 7883   4.525   6.944   4.892  0.4858  0.0209  0.1014
   19CHTO   H81 7884   4.572   6.894   4.807 -1.7814  0.7921 -1.6405
   19CHTO    N7 7885   4.491   7.082   4.848 -0.4032 -0.0839  0.5491
   19CHTO   H73 7886   4.440   7.085   4.753  0.8269  2.6468 -0.0502
   19CHTO   H74 7887   4.424   7.137   4.912 -1.2740  0.4485 -0.7965
   19CHTO   C40 7888   4.642   6.947   4.999 -0.1134  0.2436 -0.0597
   19CHTO   H82 7889   4.603   7.019   5.070 -0.7352 -1.0044  0.8864
   19CHTO   O26 7890   4.672   6.818   5.062 -0.0440  0.4616 -0.2729
   19CHTO   C41 7891   4.546   6.756   5.114 -0.7711  0.0033  0.0777
   19CHTO   H83 7892   4.504   6.822   5.192  2.2281  0.3416  1.4721
   19CHTO   C52 7893   4.590   6.629   5.190  0.4690 -0.5594 -0.0312
   19CHTO   O35 7894   4.649   6.532   5.091  0.1139 -0.1274  0.3198
   19CHTO   H71 7895   4.652   6.450   5.136  2.3604 -1.2153 -1.6957
   19CHTO   O28 7896   4.754   7.011   4.930 -0.8455  0.2864  0.0393
   19CHTO   C42 7897   4.869   7.065   5.008 -0.5794 -0.0664 -0.1195
   19CHTO   H84 7898   4.864   7.012   5.103  0.0822  0.2152  0.0801
   19CHTO   C44 7899   4.858   7.220   5.046 -0.3650  0.4672  0.4598
   19CHTO   H86 7900   4.841   7.272   4.952  2.3668 -0.3652 -0.5256
   19CHTO   O32 7901   4.734   7.237   5.113  0.3433 -0.2541  0.2116
   19CHTO   H69 7902   4.749   7.234   5.205 -0.2639 -1.3635  0.2857
   19CHTO   C48 7903   4.987   7.272   5.124 -0.0713  0.1400  0.4347
   19CHTO   H90 7904   5.012   7.217   5.215  1.4304 -0.3690 -0.2726
   19CHTO    N9 7905   4.968   7.411   5.174  0.2792  0.0086  0.3025
   19CHTO   H77 7906   4.901   7.408   5.259 -1.3541  1.3008 -0.8923
   19CHTO   H78 7907   4.911   7.458   5.094 -0.2901 -1.5496 -0.2378
   19CHTO   C51 7908   5.112   7.249   5.033  0.5285  0.0912  0.0083
   19CHTO   H93 7909   5.090   7.298   4.938 -3.3303 -1.7025 -0.1054
   19CHTO   O30 7910   5.121   7.107   5.017  0.6569  0.3854 -0.1267
   19CHTO   C46 7911   5.006   7.032   4.949 -0.1778  0.1121  0.6744
   19CHTO   H88 7912   5.011   7.067   4.846  0.8482  0.9016  0.9823
   19CHTO   C53 7913   5.028   6.884   4.959 -0.0039 -0.4267 -0.2548
   19CHTO   O72 7914   5.160   6.854   4.920  0.1440  0.3574  0.1949
   19CHTO  H199 7915   5.224   6.881   4.984  0.5943 -1.9035  0.7667
   19CHTO   O22 7916   5.231   7.292   5.097 -0.2644 -0.3839 -0.0941
   19CHTO   C31 7917   5.362   7.264   5.040 -0.4668  0.0721  0.6141
   19CHTO   H59 7918   5.355   7.164   4.992  1.6450  1.6633 -3.2664
   19CHTO   C29 7919   5.417   7.358   4.929  0.0322  0.4452  0.2287
   19CHTO   H57 7920   5.441   7.460   4.964 -1.4231  0.6062  0.8251
   19CHTO   O21 7921   5.307   7.375   4.843  0.5156 -0.0329  0.0535
   19CHTO   H37 7922   5.321   7.453   4.793  1.7302 -0.9379 -1.0303
   19CHTO   C27 7923   5.540   7.299   4.853  0.4065  0.0733  0.1838
   19CHTO   H55 7924   5.508   7.208   4.800 -2.2677  0.2181  1.4576
   19CHTO    N5 7925   5.604   7.390   4.752 -0.2668  0.6000  0.4441
   19CHTO   H43 7926   5.580   7.491   4.780 -0.1692  1.4135 -2.2899
   19CHTO   H44 7927   5.559   7.378   4.655  1.3297  0.2755 -0.2794
   19CHTO   C25 7928   5.648   7.223   4.943 -0.1774  0.0362 -0.4360
   19CHTO   H53 7929   5.733   7.289   4.967  0.3805 -1.0116  0.5157
   19CHTO   O17 7930   5.589   7.180   5.068  0.5536 -0.0587 -0.1642
   19CHTO   C32 7931   5.478   7.250   5.138  0.1414 -0.2896  1.2366
   19CHTO   H60 7932   5.511   7.345   5.180 -1.9189  1.3522 -0.7311
   19CHTO   C36 7933   5.438   7.162   5.265 -0.5163 -0.2097  0.1294
   19CHTO   O25 7934   5.388   7.028   5.238  0.2308  0.4082  0.1808
   19CHTO   H40 7935   5.341   7.027   5.157 -2.4895  2.0189  1.6523
   19CHTO   O15 7936   5.715   7.098   4.871  0.6322  0.1458 -0.5473
   19CHTO   C19 7937   5.694   6.954   4.891 -0.4732  0.0168  0.0949
   19CHTO   H47 7938   5.702   6.941   5.000  0.3040 -1.0739 -0.0924
   19CHTO   C20 7939   5.556   6.900   4.841  0.6539 -0.1435 -0.4620
   19CHTO   H48 7940   5.541   6.927   4.735 -0.2950  0.7002 -0.1145
   19CHTO   O19 7941   5.445   6.966   4.905  0.3295  0.6985 -0.1427
   19CHTO   H35 7942   5.373   6.949   4.847 -0.0064  0.8724  0.2216
   19CHTO   C21 7943   5.537   6.745   4.866  0.0623 -0.2886 -0.3445
   19CHTO   H49 7944   5.522   6.736   4.973 -0.5058  0.3720 -0.3639
   19CHTO    N4 7945   5.412   6.697   4.799  0.2649  0.2629 -0.3399
   19CHTO   H41 7946   5.333   6.687   4.872  1.0727  0.0175  0.5141
   19CHTO   H42 7947   5.376   6.746   4.709  0.4682  0.3679 -0.3638
   19CHTO   C22 7948   5.666   6.666   4.833  0.9415 -0.2715 -0.0615
   19CHTO   H50 7949   5.674   6.667   4.724  1.3575  0.2077 -0.0300
   19CHTO   O14 7950   5.784   6.724   4.889  0.1528 -0.8655 -0.4677
   19CHTO   C23 7951   5.799   6.853   4.826  0.6471  0.0953  0.3604
   19CHTO   H51 7952   5.790   6.850   4.717  2.1372  1.5523  0.1665
   19CHTO   C34 7953   5.946   6.887   4.854  0.1088 -0.2466 -0.7067
   19CHTO   O23 7954   5.967   6.920   4.995  0.1943  0.7859  0.3090
   19CHTO   H38 7955   5.998   6.848   5.046 -2.6436  0.6109  1.8742
   19CHTO   O16 7956   5.653   6.534   4.890 -0.2739  1.1190 -0.0094
   19CHTO   C24 7957   5.700   6.396   4.787 -0.4410 -0.0214 -0.6331
   19CHTO   H52 7958   5.706   6.306   4.847  1.1443  1.7149  1.9168
   19CHTO   C26 7959   5.837   6.430   4.730  0.1663 -0.0342 -0.6555
   19CHTO   H54 7960   5.839   6.528   4.678  2.1248  1.4589  2.0791
   19CHTO   O20 7961   5.919   6.444   4.847 -0.0266  0.2888  0.2236
   19CHTO   H36 7962   5.923   6.533   4.876  0.6485  1.3527 -2.9322
   19CHTO   C30 7963   5.895   6.320   4.635  0.8497 -0.2246 -0.4314
   19CHTO   H58 7964   5.918   6.238   4.704  2.9235  1.4219  0.8914
   19CHTO    N6 7965   6.022   6.348   4.563 -0.2553 -0.1613 -0.0430
   19CHTO   H45 7966   6.049   6.452   4.571 -0.4170 -0.1119 -0.1272
   19CHTO   H46 7967   6.095   6.282   4.607  0.9599  1.0004 -0.2752
   19CHTO   C33 7968   5.783   6.265   4.543 -0.0054 -0.1984 -0.3051
   19CHTO   H61 7969   5.770   6.341   4.464  1.9457 -1.0437 -1.4902
   19CHTO   O18 7970   5.658   6.256   4.613  0.6946 -0.0224 -0.1223
   19CHTO   C28 7971   5.598   6.366   4.679  0.3118  0.0405 -0.5828
   19CHTO   H56 7972   5.586   6.457   4.620  2.0266  1.2436  0.8561
   19CHTO   C35 7973   5.473   6.331   4.754  0.2312  0.1480 -0.0550
   19CHTO   O24 7974   5.361   6.289   4.678  0.0208  0.5460  0.0306
   19CHTO   H39 7975   5.345   6.362   4.622 -0.8098 -0.7222 -1.4261
   19CHTO    O9 7976   5.818   6.141   4.479  0.2168 -0.0544  0.0032
   19CHTO   C13 7977   5.814   6.145   4.314  0.8360 -0.3347 -0.8993
   19CHTO   H26 7978   5.874   6.229   4.275 -0.1822  0.2176 -1.3078
   19CHTO   C11 7979   5.662   6.141   4.246 -0.2875 -0.2860  1.0552
   19CHTO   H24 7980   5.661   6.205   4.157 -0.5099 -0.2588  1.0760
   19CHTO    O8 7981   5.556   6.178   4.342 -0.7076 -0.0151  0.2909
   19CHTO    H3 7982   5.507   6.247   4.300  0.9681  1.1966  0.2575
   19CHTO    C9 7983   5.648   5.998   4.186  0.4780 -0.0265 -0.4450
   19CHTO   H22 7984   5.714   5.993   4.098  0.8599  2.2535 -0.3096
   19CHTO    N2 7985   5.513   5.974   4.127  0.3116 -0.2807 -0.3105
   19CHTO   H10 7986   5.432   5.965   4.198  2.6703 -1.3586  2.3397
   19CHTO   H11 7987   5.489   6.057   4.062  1.9514  0.7853  0.4126
   19CHTO    C7 7988   5.688   5.875   4.281 -0.2492  0.6387  0.5795
   19CHTO   H20 7989   5.676   5.780   4.225  2.7037 -0.0916  1.0468
   19CHTO    O4 7990   5.827   5.881   4.302  0.1167  0.0781 -0.0721
   19CHTO   C14 7991   5.902   6.008   4.283  0.0030  0.5911  0.6447
   19CHTO   H27 7992   5.924   6.002   4.174  2.2345  1.3063  1.0237
   19CHTO   C18 7993   6.035   5.998   4.361  0.5902 -0.5108  0.5167
   19CHTO   O13 7994   6.134   5.932   4.281 -0.2101 -0.1241  0.0315
   19CHTO    H7 7995   6.137   5.844   4.313 -2.5842 -0.2698 -0.0911
   19CHTO    O2 7996   5.603   5.890   4.429  0.1103  0.1202 -0.5760
   19CHTO    C1 7997   5.588   5.772   4.501  0.1379  0.5110  0.3391
   19CHTO   H14 7998   5.677   5.712   4.472  0.4903  0.9542  0.4998
   19CHTO    C2 7999   5.457   5.687   4.475 -0.9351  0.3164  0.9442
   19CHTO   H15 8000   5.364   5.743   4.494 -0.9625  0.5464  0.1406
   19CHTO    O6 8001   5.464   5.658   4.333 -0.0435  0.0887  0.0881
   19CHTO    H1 8002   5.403   5.593   4.306 -1.6889  2.2483 -1.5596
   19CHTO    C3 8003   5.469   5.563   4.567  0.1429  0.2589 -0.1583
   19CHTO   H16 8004   5.546   5.503   4.516  0.4193  0.6206 -0.1610
   19CHTO    N1 8005   5.346   5.482   4.565 -0.3726 -0.2175 -1.0348
   19CHTO    H8 8006   5.279   5.510   4.485  0.8202  2.1226 -1.2458
   19CHTO    H9 8007   5.297   5.482   4.661  0.8249  1.8581 -0.3817
   19CHTO    C4 8008   5.522   5.590   4.713  0.1468  0.6700  0.2597
   19CHTO   H17 8009   5.439   5.615   4.779 -1.3295 -5.1049  0.8573
   19CHTO    O1 8010   5.620   5.690   4.728  0.1335  0.0376  0.0374
   19CHTO    C5 8011   5.597   5.806   4.656 -0.0417 -0.5340  0.6977
   19CHTO   H18 8012   5.503   5.855   4.679  0.2306 -0.4090  1.5502
   19CHTO   C16 8013   5.714   5.904   4.686  0.3968  0.0925 -0.4420
   19CHTO   O11 8014   5.847   5.854   4.658  1.1234 -0.4442  0.6958
   19CHTO    H5 8015   5.856   5.767   4.693  1.4627 -1.2967 -1.4485
   19CHTO    O3 8016   5.581   5.474   4.767  0.1173  0.0870 -0.3904
   19CHTO    C6 8017   5.552   5.439   4.911  0.0566  0.0066 -0.5615
   19CHTO   H19 8018   5.508   5.518   4.973 -0.9703 -1.0766  0.1069
   19CHTO    C8 8019   5.459   5.317   4.922 -0.2245  0.3388 -0.5521
   19CHTO   H21 8020   5.492   5.243   4.850 -0.5089 -1.0078  0.6598
   19CHTO    O7 8021   5.331   5.376   4.880  0.1862  0.5681 -0.6177
   19CHTO    H2 8022   5.257   5.320   4.890 -0.4085  1.2218 -1.2899
   19CHTO   C12 8023   5.455   5.243   5.065  0.7535  0.9948  0.8427
   19CHTO   H25 8024   5.381   5.301   5.125 -0.0686  1.6168 -0.7413
   19CHTO    N3 8025   5.385   5.113   5.059  0.0287 -0.4785  0.1978
   19CHTO   H12 8026   5.328   5.104   5.151  0.1309  2.0650  0.5619
   19CHTO   H13 8027   5.460   5.036   5.054  0.1230 -0.3740 -0.0003
   19CHTO   C15 8028   5.593   5.240   5.140 -0.0096  0.5419 -0.4540
   19CHTO   H28 8029   5.658   5.161   5.102 -0.1827  1.5519 -2.9368
   19CHTO   O10 8030   5.576   5.222   5.305 -0.0563 -0.6547  0.0870
   19CHTO    H4 8031   5.653   5.239   5.355 -1.0764  1.0754  1.1384
   19CHTO    O5 8032   5.651   5.373   5.127 -0.6550 -0.5133  0.0857
   19CHTO   C10 8033   5.687   5.403   4.994 -0.2503 -0.5917  0.1802
   19CHTO   H23 8034   5.742   5.318   4.952  2.0668  0.6435  0.6372
   19CHTO   C17 8035   5.776   5.526   5.000 -0.2062 -0.2404 -0.2441
   19CHTO   O12 8036   5.836   5.570   4.879 -0.5669  0.0749 -0.1672
   19CHTO    H6 8037   5.928   5.559   4.892 -0.7724 -0.3761  0.9296
   20CHTO  H203 8038   5.679   1.397   5.900 -0.4427  1.9724 -0.2178
   20CHTO   O82 8039   5.738   1.431   5.964  0.1772  0.2360  0.1441
   20CHTO  C123 8040   5.695   1.565   6.001 -0.3842 -0.6436  0.5380
   20CHTO  H227 8041   5.717   1.634   5.919  0.4100 -1.2405  0.2426
   20CHTO   O77 8042   5.551   1.560   6.016  0.5288  0.1340 -0.4186
   20CHTO  C118 8043   5.502   1.692   6.043  0.3799 -0.6095 -1.0721
   20CHTO  H222 8044   5.543   1.775   5.983 -0.2381  1.2446  0.9967
   20CHTO  C125 8045   5.341   1.679   6.017 -0.0323 -0.0355 -0.2394
   20CHTO   O84 8046   5.276   1.597   6.111  0.2027  0.3529 -0.2941
   20CHTO  H205 8047   5.294   1.622   6.199 -1.8041 -2.0101  0.8381
   20CHTO  C114 8048   5.536   1.723   6.191 -0.6679 -0.2930 -0.1239
   20CHTO  H218 8049   5.510   1.643   6.260 -2.4907  0.5916  0.2669
   20CHTO  C116 8050   5.689   1.728   6.211 -0.4355 -0.4340  0.8234
   20CHTO  H220 8051   5.726   1.824   6.170  0.6136 -2.1424 -2.3924
   20CHTO   O79 8052   5.721   1.732   6.353 -0.1756 -0.1577 -0.8408
   20CHTO  H201 8053   5.811   1.729   6.376 -0.5543  0.1164  0.7712
   20CHTO  C120 8054   5.767   1.612   6.137  0.2371 -0.8085  0.2254
   20CHTO  H224 8055   5.761   1.523   6.203  1.5795 -2.4827 -1.8739
   20CHTO   N21 8056   5.912   1.640   6.122 -0.5629  0.0461  0.1737
   20CHTO  H211 8057   5.966   1.606   6.209 -1.6764  0.6372  1.1152
   20CHTO  H212 8058   5.945   1.591   6.032 -0.2842 -0.2717  0.4501
   20CHTO   O75 8059   5.466   1.846   6.225  0.0113 -0.1617 -0.8322
   20CHTO  C112 8060   5.502   1.994   6.161  0.4480  0.3604  0.0120
   20CHTO  H216 8061   5.498   1.984   6.051  1.6473 -1.1136  0.0893
   20CHTO   O73 8062   5.630   2.034   6.204  0.1142 -0.0511 -0.1705
   20CHTO  C113 8063   5.673   2.152   6.142  0.3182  0.6846 -0.1560
   20CHTO  H217 8064   5.670   2.135   6.032 -1.6173 -0.6846  0.0825
   20CHTO  C124 8065   5.817   2.163   6.178 -0.1098  0.0240 -0.0688
   20CHTO   O83 8066   5.887   2.250   6.087 -0.1786 -0.0058  0.3322
   20CHTO  H204 8067   5.979   2.239   6.105 -0.3929 -2.6981 -0.0596
   20CHTO  C109 8068   5.587   2.273   6.176  0.2915 -0.7773  0.2060
   20CHTO  H213 8069   5.615   2.298   6.279 -1.9665  0.1574  0.6108
   20CHTO  C110 8070   5.436   2.237   6.156 -1.1871  0.0522  0.7392
   20CHTO  H214 8071   5.420   2.230   6.048 -0.4499 -1.0819  0.6906
   20CHTO   O78 8072   5.360   2.351   6.198 -0.2969  0.2855 -0.1830
   20CHTO  H200 8073   5.370   2.367   6.290 -0.9862  1.8885 -0.3676
   20CHTO  C111 8074   5.398   2.101   6.212 -0.4504  1.1005  0.3750
   20CHTO  H215 8075   5.402   2.105   6.322 -4.2014  0.0165  0.6113
   20CHTO   N19 8076   5.258   2.061   6.183  0.0340 -0.4854 -0.3097
   20CHTO  H207 8077   5.196   2.145   6.213 -3.0649 -1.9189 -2.4415
   20CHTO  H208 8078   5.248   2.065   6.075 -0.1533 -0.6528 -0.2977
   20CHTO   O74 8079   5.633   2.383   6.087  0.4896  0.1687  0.4307
   20CHTO  C115 8080   5.677   2.518   6.141  0.1439 -0.3358  0.5607
   20CHTO  H219 8081   5.592   2.572   6.183  0.6251  0.2163  0.8251
   20CHTO   O76 8082   5.771   2.500   6.260 -0.0299  0.0108  0.6789
   20CHTO  C122 8083   5.860   2.613   6.282 -0.1248  0.4917  0.0474
   20CHTO  H226 8084   5.947   2.583   6.342 -0.5148  0.6916  0.7165
   20CHTO  C126 8085   5.793   2.730   6.362  0.0379  0.7417  0.5935
   20CHTO   O85 8086   5.754   2.685   6.494 -0.8317 -0.4094 -0.5454
   20CHTO  H206 8087   5.665   2.698   6.519 -0.3081  2.4513  0.0018
   20CHTO  C121 8088   5.931   2.677   6.156 -0.0119  0.4076  0.0010
   20CHTO  H225 8089   5.986   2.768   6.187 -1.3851  1.3265 -0.2030
   20CHTO   O81 8090   6.027   2.583   6.104 -0.7223  0.1082 -1.0273
   20CHTO  H202 8091   6.104   2.624   6.070  0.2331 -0.5372  0.3333
   20CHTO  C119 8092   5.835   2.706   6.037 -0.5977 -0.3208 -0.2308
   20CHTO  H223 8093   5.775   2.793   6.063  0.3077  1.0804 -2.6230
   20CHTO  C117 8094   5.731   2.586   6.010 -0.7466  0.5990  0.1429
   20CHTO  H221 8095   5.768   2.507   5.945 -0.3951  0.5630  0.3845
   20CHTO   N20 8096   5.608   2.644   5.940 -0.3791 -0.3708  0.6219
   20CHTO  H209 8097   5.628   2.677   5.839  0.1847  0.7699  1.0996
   20CHTO  H210 8098   5.521   2.580   5.946  1.8230 -3.6505 -0.8211
   20CHTO   O80 8099   5.927   2.756   5.909 -0.6880  0.1653  0.5944
   20CHTO  C103 8100   5.952   2.913   5.897 -0.0731 -0.2516 -0.2657
   20CHTO  H190 8101   5.890   2.978   5.959 -1.6881 -1.3939 -0.6635
   20CHTO  C101 8102   6.102   2.957   5.931 -0.5737  0.0694 -0.3788
   20CHTO  H188 8103   6.172   2.888   5.884 -0.2957 -0.2908  0.5576
   20CHTO   O68 8104   6.128   2.949   6.088 -0.5402 -0.4767  0.0254
   20CHTO  H168 8105   6.166   3.032   6.109 -1.5828 -0.2918  1.2595
   20CHTO   C99 8106   6.135   3.101   5.868  0.4448  0.5699 -0.1043
   20CHTO  H186 8107   6.074   3.178   5.919 -1.7072 -0.2003 -1.4405
   20CHTO   N17 8108   6.279   3.135   5.891 -0.5207  0.2685  0.0786
   20CHTO  H174 8109   6.335   3.050   5.855 -1.2844 -0.5427  0.7575
   20CHTO  H175 8110   6.311   3.159   5.991  2.1006 -2.2022 -0.0973
   20CHTO   C97 8111   6.085   3.104   5.723 -0.2515 -0.0387  0.5083
   20CHTO  H184 8112   6.136   3.020   5.674  2.0464  1.6532 -0.0849
   20CHTO   O64 8113   5.945   3.086   5.725  0.3648  0.4215  0.0825
   20CHTO  C104 8114   5.913   2.948   5.753  0.5226 -0.2898  0.0815
   20CHTO  H191 8115   5.956   2.872   5.688 -1.7909 -0.4385 -1.2950
   20CHTO  C108 8116   5.764   2.934   5.738 -0.2176 -0.3416 -0.2012
   20CHTO   O71 8117   5.731   2.945   5.600  0.2404 -0.8622 -0.1953
   20CHTO  H171 8118   5.763   2.872   5.550  0.6205 -0.8351  0.0064
   20CHTO   O62 8119   6.117   3.217   5.645 -0.0033  0.1165  0.2111
   20CHTO   C91 8120   6.129   3.208   5.497  0.4797 -0.3148  0.3696
   20CHTO  H178 8121   6.141   3.104   5.468 -1.1538 -1.2461  2.8572
   20CHTO   C92 8122   6.255   3.278   5.435 -0.4564 -0.7217  0.5977
   20CHTO  H179 8123   6.265   3.377   5.481  0.5924  0.3013 -1.7566
   20CHTO   O66 8124   6.364   3.194   5.479  0.0662 -0.2159 -0.2112
   20CHTO  H166 8125   6.449   3.231   5.466 -0.0213  0.7033  1.6101
   20CHTO   C93 8126   6.256   3.289   5.276 -0.4833  0.1235 -0.2836
   20CHTO  H180 8127   6.268   3.188   5.234 -3.5984 -0.9868  1.3640
   20CHTO   N16 8128   6.372   3.362   5.219 -0.3787 -0.2486  0.1485
   20CHTO  H172 8129   6.439   3.398   5.296 -1.3154  0.9078  0.4386
   20CHTO  H173 8130   6.434   3.303   5.153 -0.8037 -0.8108  0.2495
   20CHTO   C94 8131   6.124   3.346   5.222  0.6634  0.1192 -0.1251
   20CHTO  H181 8132   6.111   3.451   5.249 -0.5180 -0.5222  1.8806
   20CHTO   O61 8133   6.011   3.278   5.286 -0.3295 -0.2885 -0.4386
   20CHTO   C95 8134   6.008   3.278   5.427  0.4057  0.1972 -0.4160
   20CHTO  H182 8135   6.000   3.380   5.463  1.4691 -0.3441  1.4392
   20CHTO  C106 8136   5.863   3.221   5.463  0.2331 -0.5082 -0.1832
   20CHTO   O69 8137   5.828   3.090   5.416 -0.2769 -0.2575  0.7655
   20CHTO  H169 8138   5.802   3.085   5.326 -0.3911 -0.9451  0.8390
   20CHTO   O63 8139   6.110   3.331   5.059 -0.0083 -0.0128 -0.3336
   20CHTO   C96 8140   6.064   3.188   5.005 -0.0943  0.4202 -0.3496
   20CHTO  H183 8141   6.064   3.123   5.093  0.3067  0.9364  0.0311
   20CHTO   C98 8142   6.159   3.121   4.898 -0.4085 -0.8055  0.2288
   20CHTO  H185 8143   6.261   3.104   4.935 -0.7661  1.0844  2.1744
   20CHTO   O67 8144   6.116   2.986   4.862  0.0635  0.1960  0.3593
   20CHTO  H167 8145   6.022   2.983   4.858 -0.0216 -0.1186  2.1415
   20CHTO  C102 8146   6.151   3.206   4.764 -0.1710 -0.1145 -0.1214
   20CHTO  H189 8147   6.186   3.140   4.684  0.1054  0.4932 -0.5037
   20CHTO   N18 8148   6.237   3.333   4.769  0.2392  0.3845 -0.1748
   20CHTO  H176 8149   6.182   3.403   4.831 -1.6922 -0.8293 -0.4549
   20CHTO  H177 8150   6.337   3.328   4.809  0.7221  1.1905 -1.2964
   20CHTO  C105 8151   6.000   3.237   4.730  0.2154  0.0932  0.3198
   20CHTO  H192 8152   5.985   3.345   4.726 -1.9044 -0.2015 -0.0673
   20CHTO   O65 8153   5.904   3.180   4.816 -0.5963 -0.2901  0.0310
   20CHTO  C100 8154   5.917   3.191   4.958  0.2169  0.3651 -0.2299
   20CHTO  H187 8155   5.880   3.288   4.993 -1.4008  0.3129 -1.7391
   20CHTO  C107 8156   5.825   3.083   5.025 -0.1187 -0.5318 -0.2392
   20CHTO   O70 8157   5.866   2.948   4.983 -0.3142  0.2902  0.1031
   20CHTO  H170 8158   5.837   2.925   4.897  0.2190  2.6075 -0.7252
   20CHTO   O57 8159   5.981   3.175   4.579  0.1669  0.5650 -0.2072
   20CHTO   C85 8160   5.862   3.206   4.503  0.3043 -0.1238 -0.8583
   20CHTO  H157 8161   5.803   3.286   4.552 -0.6325 -1.6915  0.6397
   20CHTO   C83 8162   5.757   3.081   4.514  0.7702 -0.2155  0.2724
   20CHTO  H155 8163   5.745   3.053   4.619  0.7913  1.3735  0.7180
   20CHTO   O56 8164   5.824   2.964   4.468 -0.3378 -0.3024  0.0162
   20CHTO  H135 8165   5.863   2.977   4.384  1.4456  1.9652  1.1697
   20CHTO   C81 8166   5.622   3.112   4.449  0.2579  0.6434 -0.4812
   20CHTO  H153 8167   5.583   3.204   4.492 -1.0688  0.0377 -0.3815
   20CHTO   N14 8168   5.520   3.008   4.473 -0.3482 -0.1646  0.1478
   20CHTO  H141 8169   5.425   3.052   4.498  0.5290  2.0685 -0.3242
   20CHTO  H142 8170   5.515   2.939   4.391  1.9877  1.2268 -1.2047
   20CHTO   C79 8171   5.653   3.131   4.293 -0.7049 -0.4915  0.3057
   20CHTO  H151 8172   5.562   3.172   4.250 -0.4698  0.2052  0.4589
   20CHTO   O52 8173   5.759   3.226   4.262 -0.4297 -0.5632 -0.0990
   20CHTO   C86 8174   5.885   3.232   4.343  0.2620 -0.1038 -0.0561
   20CHTO  H158 8175   5.942   3.151   4.293 -0.8420 -0.1821 -1.2506
   20CHTO   C90 8176   5.956   3.365   4.320 -0.2705  0.8119  0.7836
   20CHTO   O60 8177   6.090   3.368   4.374  0.2852  0.3211 -0.1928
   20CHTO  H138 8178   6.126   3.283   4.354  0.0550  0.0485  0.5250
   20CHTO   O50 8179   5.693   3.004   4.228  0.0261 -0.1987 -0.2735
   20CHTO   C73 8180   5.734   2.989   4.091  0.0108  0.2766  0.7163
   20CHTO  H145 8181   5.831   3.041   4.082 -0.8066  1.7883  0.4606
   20CHTO   C74 8182   5.631   3.054   3.991  0.5627  0.4796 -0.6306
   20CHTO  H146 8183   5.625   3.159   4.023  2.5630  0.7900 -1.2358
   20CHTO   O54 8184   5.677   3.047   3.853 -0.3690 -0.1116 -0.4648
   20CHTO  H133 8185   5.749   3.101   3.829 -1.2490  0.7623 -1.2379
   20CHTO   C75 8186   5.482   2.975   4.001 -0.0199  0.2024 -0.0305
   20CHTO  H147 8187   5.447   2.975   4.105 -0.7509 -1.8957 -0.2405
   20CHTO   N13 8188   5.370   3.029   3.918  0.4208 -0.3274  0.0853
   20CHTO  H139 8189   5.283   3.042   3.980  0.5472  2.1094 -0.1933
   20CHTO  H140 8190   5.384   3.121   3.864 -0.9415  0.1475  0.5218
   20CHTO   C76 8191   5.514   2.822   3.970  0.5113  0.1594  0.1341
   20CHTO  H148 8192   5.550   2.828   3.867 -1.6921  1.5548 -0.5822
   20CHTO   O49 8193   5.623   2.777   4.064  0.1429 -0.2465  0.0225
   20CHTO   C77 8194   5.752   2.844   4.044  0.6968  0.6715  0.3627
   20CHTO  H149 8195   5.788   2.840   3.941 -2.0481  0.1704 -0.6328
   20CHTO   C88 8196   5.857   2.771   4.132  0.6977  0.8458  0.2063
   20CHTO   O58 8197   5.866   2.630   4.109 -0.3417  0.0432  0.3513
   20CHTO  H136 8198   5.920   2.582   4.168 -0.9341 -1.5828 -0.3928
   20CHTO   O51 8199   5.372   2.728   3.989 -0.3073 -0.2755 -0.7716
   20CHTO   C78 8200   5.404   2.581   4.049 -0.7376  0.2154 -0.0457
   20CHTO  H150 8201   5.510   2.581   4.080 -0.6783 -0.2882 -0.2541
   20CHTO   C80 8202   5.385   2.470   3.941 -0.2860 -0.5784 -0.5343
   20CHTO  H152 8203   5.284   2.484   3.898 -0.8926 -0.3167  0.9578
   20CHTO   O55 8204   5.473   2.494   3.834 -0.5415  0.0110  0.4150
   20CHTO  H134 8205   5.434   2.474   3.751 -1.1107 -0.4968  0.8109
   20CHTO   C84 8206   5.394   2.328   4.012 -0.0741  0.5787 -0.0847
   20CHTO  H156 8207   5.498   2.314   4.040 -0.5554  0.2876  1.6223
   20CHTO   N15 8208   5.365   2.221   3.910  0.6382 -0.7261 -0.2845
   20CHTO  H143 8209   5.457   2.178   3.877  0.8927 -0.1218 -0.3778
   20CHTO  H144 8210   5.297   2.145   3.942 -2.6960  1.0517 -2.7803
   20CHTO   C87 8211   5.288   2.321   4.126 -0.2202  0.1053 -0.8126
   20CHTO  H159 8212   5.189   2.337   4.085 -0.3779  0.3096 -0.3581
   20CHTO   O53 8213   5.334   2.428   4.238  0.0957 -0.4667  0.3918
   20CHTO   C82 8214   5.314   2.558   4.168 -0.3707  0.5611 -0.1526
   20CHTO  H154 8215   5.209   2.564   4.137 -0.3405  0.0914 -0.3531
   20CHTO   C89 8216   5.333   2.670   4.276 -0.2899  0.7202  0.2296
   20CHTO   O59 8217   5.217   2.700   4.358 -0.1356 -0.3459 -0.1354
   20CHTO  H137 8218   5.172   2.618   4.362 -0.6154 -0.1231 -0.9141
   20CHTO   O45 8219   5.297   2.175   4.225 -0.3057 -0.6552  0.3191
   20CHTO   C67 8220   5.202   2.180   4.336 -0.3799  0.3240  0.0246
   20CHTO  H124 8221   5.188   2.278   4.381  0.8970  0.4381  0.1869
   20CHTO   C65 8222   5.061   2.128   4.292 -0.1788 -0.1121  0.1713
   20CHTO  H122 8223   5.059   2.097   4.187  1.9769 -1.4175  0.4793
   20CHTO   O44 8224   4.982   2.249   4.294  0.0685  0.4388 -0.3932
   20CHTO  H102 8225   4.914   2.243   4.229 -0.9320 -0.2013  0.6933
   20CHTO   C63 8226   5.007   2.003   4.376  0.8266  0.7203 -0.7299
   20CHTO  H120 8227   5.073   1.919   4.355 -0.6338 -0.9417  1.2510
   20CHTO   N11 8228   4.871   1.946   4.344 -0.5044  1.2220  0.2486
   20CHTO  H108 8229   4.876   1.850   4.391 -0.0842  1.4810  0.7333
   20CHTO  H109 8230   4.878   1.916   4.241  1.3226  0.3959  0.6008
   20CHTO   C61 8231   5.020   2.034   4.528  0.9333 -0.5162 -0.5378
   20CHTO  H118 8232   5.001   1.941   4.583  1.4170 -0.0141  0.4914
   20CHTO   O40 8233   5.160   2.065   4.556  0.0931 -0.1213  0.0996
   20CHTO   C68 8234   5.263   2.097   4.450 -0.4003  0.1426 -0.4607
   20CHTO  H125 8235   5.310   1.999   4.426 -2.5434 -1.1555  0.4387
   20CHTO   C72 8236   5.378   2.173   4.513  0.3734 -0.4119 -0.1218
   20CHTO   O48 8237   5.351   2.282   4.605 -0.1595 -0.3479  0.4050
   20CHTO  H105 8238   5.298   2.342   4.557  1.1389 -1.6018 -2.6873
   20CHTO   O38 8239   4.928   2.134   4.584  0.0447  0.0842  0.0788
   20CHTO   C55 8240   4.938   2.175   4.716  0.2123 -0.3691  0.6055
   20CHTO  H112 8241   5.044   2.198   4.731 -0.1095  1.9239 -0.5722
   20CHTO   C56 8242   4.883   2.065   4.818 -0.9537 -0.1045 -0.3979
   20CHTO  H113 8243   4.790   2.032   4.769  0.5995  0.6521 -4.0427
   20CHTO   O42 8244   4.958   1.942   4.835  0.3053 -0.6849 -0.0230
   20CHTO  H100 8245   5.051   1.954   4.845  0.2599 -0.4929  0.1748
   20CHTO   C57 8246   4.843   2.121   4.957 -0.2297 -0.0143  0.1974
   20CHTO  H114 8247   4.935   2.136   5.014 -2.1733  0.0680  3.4083
   20CHTO   N10 8248   4.745   2.036   5.021  0.4231  0.2474  0.1239
   20CHTO  H106 8249   4.796   1.958   5.076  0.4649  0.8682  0.9720
   20CHTO  H107 8250   4.688   1.986   4.943  2.4849 -0.8981 -0.6894
   20CHTO   C58 8251   4.774   2.259   4.945  0.6248 -0.0433 -0.1952
   20CHTO  H115 8252   4.677   2.253   4.892 -0.9230  2.7692  2.1073
   20CHTO   O37 8253   4.861   2.350   4.872  0.2478 -0.1157 -0.1077
   20CHTO   C59 8254   4.865   2.310   4.737 -0.4821  0.1240 -0.0095
   20CHTO  H116 8255   4.765   2.318   4.694 -0.9891  1.4610  1.3569
   20CHTO   C70 8256   4.939   2.424   4.667  0.0927 -0.4934  0.8004
   20CHTO   O46 8257   4.935   2.407   4.525 -0.4617 -0.4852 -0.2698
   20CHTO  H103 8258   4.934   2.490   4.480  0.5244  0.5860  1.6346
   20CHTO   O39 8259   4.731   2.327   5.094 -0.2064 -0.2470  0.1611
   20CHTO   C60 8260   4.840   2.409   5.150  0.0205  0.0824 -0.3921
   20CHTO  H117 8261   4.930   2.365   5.106  0.0968  0.3041 -0.4538
   20CHTO   C62 8262   4.823   2.559   5.115  0.4723  0.0836  0.4970
   20CHTO  H119 8263   4.795   2.562   5.007 -0.1432 -1.3253  0.6080
   20CHTO   O43 8264   4.706   2.620   5.175 -0.8782  0.0373 -0.4178
   20CHTO  H101 8265   4.656   2.677   5.119 -1.4576  0.3649  0.4188
   20CHTO   C66 8266   4.941   2.646   5.165  0.2728 -0.1852 -0.7338
   20CHTO  H123 8267   5.037   2.604   5.134  1.0227 -0.4755  1.8325
   20CHTO   N12 8268   4.939   2.779   5.114 -0.1299  0.2869  0.2929
   20CHTO  H110 8269   4.840   2.821   5.105  0.2544  0.8777 -1.3654
   20CHTO  H111 8270   4.995   2.843   5.181  0.4492  0.8982 -0.7546
   20CHTO   C69 8271   4.951   2.636   5.319  0.6472  0.1124  0.0704
   20CHTO  H126 8272   4.858   2.671   5.368 -0.3611  0.9866 -2.3922
   20CHTO   O41 8273   4.975   2.471   5.340 -0.4753 -0.0443  0.6979
   20CHTO   C64 8274   4.853   2.387   5.300 -0.4655 -0.3602  0.1763
   20CHTO  H121 8275   4.756   2.429   5.332  1.0608  1.9964  1.8861
   20CHTO   C71 8276   4.868   2.246   5.337  0.4937  0.2300  0.2866
   20CHTO   O47 8277   4.853   2.228   5.479  0.4228 -0.2422  0.4594
   20CHTO  H104 8278   4.882   2.306   5.522 -0.7723 -0.2564  1.3119
   20CHTO   O34 8279   5.069   2.714   5.370 -0.3296 -0.2371  0.5534
   20CHTO   C49 8280   5.163   2.722   5.485  0.4641  0.2047 -0.2397
   20CHTO   H91 8281   5.104   2.740   5.574  0.7020 -0.5540  0.0736
   20CHTO   C47 8282   5.257   2.841   5.456  0.9460  0.0301  0.2763
   20CHTO   H89 8283   5.314   2.853   5.550 -1.7030  0.1513  1.8988
   20CHTO   O33 8284   5.183   2.960   5.435  0.0128 -0.0270 -0.0919
   20CHTO   H70 8285   5.127   2.968   5.360  0.5839 -0.2916 -0.5472
   20CHTO   C45 8286   5.359   2.816   5.336  0.0351 -0.5979  0.6754
   20CHTO   H87 8287   5.318   2.865   5.246  0.5610  0.4954  1.0298
   20CHTO    N8 8288   5.496   2.874   5.366 -0.1584  0.1337  0.1570
   20CHTO   H75 8289   5.560   2.787   5.368 -2.3435 -1.5469 -0.7501
   20CHTO   H76 8290   5.489   2.931   5.457 -0.1917 -1.3544  1.0856
   20CHTO   C43 8291   5.359   2.660   5.291  0.1935  0.2383  0.3785
   20CHTO   H85 8292   5.266   2.656   5.235 -0.1038 -0.5507  0.9287
   20CHTO   O29 8293   5.356   2.569   5.403 -0.3484  0.7478  0.4387
   20CHTO   C50 8294   5.250   2.588   5.500  0.1847 -0.1546 -0.2127
   20CHTO   H92 8295   5.184   2.500   5.491  0.3786 -0.3761  0.5345
   20CHTO   C54 8296   5.308   2.565   5.644 -0.1303  0.3110  0.1002
   20CHTO   O36 8297   5.349   2.436   5.657 -0.7286 -0.4114  0.7064
   20CHTO   H72 8298   5.276   2.377   5.666 -1.5449  0.9255  3.0441
   20CHTO   O27 8299   5.466   2.633   5.193 -0.2263 -0.2046  0.1313
   20CHTO   C37 8300   5.474   2.543   5.087 -0.7858  0.0788 -0.0074
   20CHTO   H79 8301   5.425   2.448   5.112 -0.6612  0.3311  1.2177
   20CHTO   C38 8302   5.395   2.598   4.969 -1.1726 -0.4061  0.3779
   20CHTO   H80 8303   5.408   2.707   4.971 -0.0905 -0.5130 -0.2241
   20CHTO   O31 8304   5.263   2.578   5.009  0.2480 -0.3246  0.1760
   20CHTO   H68 8305   5.224   2.663   5.019  0.2124 -0.6378  3.1560
   20CHTO   C39 8306   5.423   2.531   4.830 -1.0313  0.5141 -0.2902
   20CHTO   H81 8307   5.380   2.431   4.829  0.4020 -0.1438  1.7032
   20CHTO    N7 8308   5.359   2.611   4.724  0.9975 -0.5730  0.0545
   20CHTO   H73 8309   5.314   2.702   4.759 -0.4164 -0.8103 -1.1087
   20CHTO   H74 8310   5.312   2.549   4.649  1.9046 -1.8124  0.4965
   20CHTO   C40 8311   5.577   2.518   4.813 -0.3940 -0.3862  0.1582
   20CHTO   H82 8312   5.636   2.609   4.804  0.7852 -1.1042  0.4765
   20CHTO   O26 8313   5.626   2.437   4.925  0.1462 -0.1062 -0.4735
   20CHTO   C41 8314   5.619   2.513   5.047 -0.0809  0.2055  0.4326
   20CHTO   H83 8315   5.673   2.608   5.037 -0.1938  0.2748  0.4871
   20CHTO   C52 8316   5.706   2.428   5.155  0.0280  0.0879  0.7028
   20CHTO   O35 8317   5.840   2.411   5.104  0.0588  0.0851  0.0363
   20CHTO   H71 8318   5.876   2.489   5.066 -3.2419  2.0239  0.6985
   20CHTO   O28 8319   5.617   2.444   4.694 -0.0366  0.2473  0.1077
   20CHTO   C42 8320   5.759   2.456   4.644  0.4579 -0.0784  0.6540
   20CHTO   H84 8321   5.767   2.374   4.573 -0.2027  1.2484 -0.9747
   20CHTO   C44 8322   5.878   2.440   4.736  0.2532  0.1319 -0.4680
   20CHTO   H86 8323   5.888   2.530   4.797  0.6940 -1.0315  1.1965
   20CHTO   O32 8324   5.863   2.323   4.817  0.0105  0.3303  0.4618
   20CHTO   H69 8325   5.806   2.328   4.890 -3.4431  1.2350 -2.1733
   20CHTO   C48 8326   6.010   2.432   4.647 -0.0191  0.7341  0.0240
   20CHTO   H90 8327   5.990   2.344   4.585  4.2906  0.0437 -0.5415
   20CHTO    N9 8328   6.126   2.404   4.743  0.1378 -0.0502 -0.0805
   20CHTO   H77 8329   6.114   2.441   4.844 -1.2042  0.7156 -0.5005
   20CHTO   H78 8330   6.186   2.316   4.726 -1.4060 -1.1657  0.0553
   20CHTO   C51 8331   6.029   2.557   4.557  0.1481 -0.5392  0.0821
   20CHTO   H93 8332   6.049   2.642   4.622  1.7196 -0.5292 -0.3957
   20CHTO   O30 8333   5.905   2.574   4.484 -0.2364 -0.2854 -0.8752
   20CHTO   C46 8334   5.772   2.581   4.562 -0.0868 -0.4857  0.0657
   20CHTO   H88 8335   5.765   2.670   4.624 -0.9672 -1.0891  0.8424
   20CHTO   C53 8336   5.665   2.595   4.451 -0.4107  0.2015  0.7045
   20CHTO   O72 8337   5.673   2.501   4.349  0.1522 -0.4811 -0.0088
   20CHTO  H199 8338   5.646   2.416   4.378 -0.5601 -0.0205  0.6988
   20CHTO   O22 8339   6.146   2.542   4.477 -0.1984  0.2700  0.1965
   20CHTO   C31 8340   6.246   2.642   4.429  1.1492 -0.0584 -0.1923
   20CHTO   H59 8341   6.254   2.626   4.320 -0.9636 -1.4965 -0.1536
   20CHTO   C29 8342   6.206   2.793   4.456  0.0402  0.4972 -0.4648
   20CHTO   H57 8343   6.196   2.810   4.564  1.5471  2.1720 -0.5669
   20CHTO   O21 8344   6.075   2.826   4.396  0.1035  0.1485  0.1424
   20CHTO   H37 8345   6.009   2.803   4.459  0.5743 -1.1658  0.1637
   20CHTO   C27 8346   6.311   2.895   4.394 -0.5130  0.0958  0.3121
   20CHTO   H55 8347   6.310   2.885   4.284  0.6967  0.2390  0.2796
   20CHTO    N5 8348   6.290   3.034   4.424  0.4945 -0.3279  0.3953
   20CHTO   H43 8349   6.299   3.044   4.531 -0.0287 -1.6861  0.5772
   20CHTO   H44 8350   6.189   3.034   4.385 -0.5298 -1.8837  2.9414
   20CHTO   C25 8351   6.448   2.852   4.450  0.5592  0.4901  0.3255
   20CHTO   H53 8352   6.457   2.875   4.558  1.0183  0.8547  0.2122
   20CHTO   O17 8353   6.474   2.711   4.427 -0.0067 -0.4994  0.0168
   20CHTO   C32 8354   6.382   2.620   4.488  0.0801 -0.1347  0.3087
   20CHTO   H60 8355   6.374   2.625   4.597 -0.4600 -0.2648  0.2757
   20CHTO   C36 8356   6.428   2.467   4.472 -0.1905 -0.1746  0.4349
   20CHTO   O25 8357   6.446   2.437   4.338  0.3693  0.5015 -0.2595
   20CHTO   H40 8358   6.475   2.349   4.323 -0.2000  0.2994 -0.1481
   20CHTO   O15 8359   6.578   2.927   4.402  0.1074 -0.0333 -0.1604
   20CHTO   C19 8360   6.709   2.933   4.449  0.0500  0.2447 -0.7560
   20CHTO   H47 8361   6.765   2.999   4.382  1.4198  1.4795  1.5760
   20CHTO   C20 8362   6.720   3.006   4.590 -0.0409 -0.0596  0.0443
   20CHTO   H48 8363   6.662   2.956   4.670  0.3283  0.6486  0.7676
   20CHTO   O19 8364   6.672   3.140   4.571  0.0920 -0.0619  0.3153
   20CHTO   H35 8365   6.579   3.138   4.559  0.1499  0.6639 -0.3444
   20CHTO   C21 8366   6.865   3.010   4.648 -0.0434  0.8301 -0.0017
   20CHTO   H49 8367   6.922   3.083   4.592  0.8474  0.3451  0.2674
   20CHTO    N4 8368   6.876   3.054   4.791 -0.6546  0.0554  0.2965
   20CHTO   H41 8369   6.868   2.973   4.862  1.3864 -1.8357 -1.5674
   20CHTO   H42 8370   6.965   3.111   4.813  0.0309 -1.2576  1.0000
   20CHTO   C22 8371   6.936   2.873   4.632 -0.4151  0.3522  0.3900
   20CHTO   H50 8372   6.882   2.809   4.702 -0.1164  0.9643  1.1953
   20CHTO   O14 8373   6.927   2.838   4.495 -0.0036  0.2315  0.1783
   20CHTO   C23 8374   6.791   2.800   4.456 -0.1006 -0.5947 -0.4597
   20CHTO   H51 8375   6.750   2.731   4.531 -0.8156  1.7553  1.3733
   20CHTO   C34 8376   6.801   2.754   4.315 -0.2710 -0.1425 -0.7073
   20CHTO   O23 8377   6.881   2.637   4.303  0.0243  0.5612  0.5869
   20CHTO   H38 8378   6.970   2.662   4.284 -0.2315 -0.3679 -1.9176
   20CHTO   O16 8379   7.081   2.865   4.658 -0.2245 -0.6980  0.6392
   20CHTO   C24 8380   7.127   2.730   4.714  0.5252  0.3629 -0.6722
   20CHTO   H52 8381   7.045   2.658   4.725  1.6633 -0.8787 -0.2587
   20CHTO   C26 8382   7.185   2.763   4.852 -0.2464  0.8977  0.5768
   20CHTO   H54 8383   7.235   2.862   4.845 -0.6601  0.9530 -2.1055
   20CHTO   O20 8384   7.075   2.770   4.938  0.0454  1.0078 -0.5231
   20CHTO   H36 8385   7.096   2.805   5.023 -0.8802 -0.4506  0.3332
   20CHTO   C30 8386   7.278   2.652   4.911 -0.1960  0.0831  0.2523
   20CHTO   H58 8387   7.246   2.620   5.011 -0.7708 -2.1836 -0.6284
   20CHTO    N6 8388   7.413   2.706   4.936  0.1991 -0.1259 -0.3951
   20CHTO   H45 8389   7.467   2.757   4.857 -0.4571 -0.6959 -1.2204
   20CHTO   H46 8390   7.478   2.627   4.970  0.0863 -0.9414 -1.9966
   20CHTO   C33 8391   7.266   2.524   4.826 -0.4351 -0.2350 -0.0808
   20CHTO   H61 8392   7.344   2.457   4.863  0.3895 -0.3221 -1.9351
   20CHTO   O18 8393   7.290   2.544   4.685  0.2591 -0.0817  0.0883
   20CHTO   C28 8394   7.236   2.664   4.625  0.6597  0.2715  0.4077
   20CHTO   H56 8395   7.312   2.739   4.609  2.1904 -1.6027 -1.3428
   20CHTO   C35 8396   7.182   2.628   4.484  0.4502  0.7267 -0.0429
   20CHTO   O24 8397   7.291   2.600   4.397  0.0692  0.0326 -0.1998
   20CHTO   H39 8398   7.267   2.543   4.327  0.0360  1.0970 -1.0678
   20CHTO    O9 8399   7.134   2.465   4.848 -0.1470 -0.3400  0.1486
   20CHTO   C13 8400   7.104   2.317   4.794 -0.0384  0.3409 -0.3444
   20CHTO   H26 8401   7.193   2.275   4.743  0.9185  2.6935 -0.6685
   20CHTO   C11 8402   6.981   2.329   4.693 -0.0490  0.1454  0.9135
   20CHTO   H24 8403   7.013   2.390   4.608  0.0808 -0.1806  0.7280
   20CHTO    O8 8404   6.876   2.416   4.752 -0.3995  0.0506  0.2459
   20CHTO    H3 8405   6.788   2.387   4.739 -0.0325 -0.4496 -1.3007
   20CHTO    C9 8406   6.941   2.184   4.657  0.7364 -0.0983  0.0789
   20CHTO   H22 8407   7.037   2.136   4.634  0.2368 -1.4217  0.6708
   20CHTO    N2 8408   6.872   2.178   4.528  0.8851  0.1746  0.0270
   20CHTO   H10 8409   6.874   2.081   4.479  0.5853 -0.9959  2.2627
   20CHTO   H11 8410   6.767   2.201   4.539  0.7733 -0.0771 -0.4627
   20CHTO    C7 8411   6.882   2.120   4.789 -1.3904  0.2336  0.4263
   20CHTO   H20 8412   6.913   2.013   4.788  1.1760  0.9293 -2.8098
   20CHTO    O4 8413   6.928   2.170   4.911  0.6510 -0.1098  0.1573
   20CHTO   C14 8414   7.066   2.213   4.909 -0.9895 -0.1491  0.3548
   20CHTO   H27 8415   7.133   2.126   4.899  0.6096  1.1848 -0.9402
   20CHTO   C18 8416   7.091   2.268   5.054 -0.0820 -0.4093 -0.1631
   20CHTO   O13 8417   7.225   2.317   5.056 -0.0784 -0.1368 -0.1886
   20CHTO    H7 8418   7.283   2.251   5.089  1.2296  0.5644 -1.0150
   20CHTO    O2 8419   6.718   2.135   4.779  0.5661 -0.0639  0.7220
   20CHTO    C1 8420   6.640   2.097   4.894 -0.0345 -0.5670  0.0374
   20CHTO   H14 8421   6.683   2.140   4.987 -0.9793  0.1928  0.1466
   20CHTO    C2 8422   6.620   1.938   4.905  0.4797  0.0751  0.4578
   20CHTO   H15 8423   6.584   1.904   4.807 -0.5230  0.0342  0.8351
   20CHTO    O6 8424   6.746   1.868   4.939  0.3984  0.3490  0.5619
   20CHTO    H1 8425   6.787   1.933   4.991  1.3419  0.2824 -0.0910
   20CHTO    C3 8426   6.511   1.901   5.018 -0.0611 -0.1928  0.0384
   20CHTO   H16 8427   6.562   1.929   5.112 -0.0396 -0.7616  0.1976
   20CHTO    N1 8428   6.479   1.750   5.033  0.0458  0.0720 -0.1663
   20CHTO    H8 8429   6.567   1.687   5.032  0.6411  0.7165  4.0327
   20CHTO    H9 8430   6.437   1.748   5.132  0.1624 -0.8538 -0.1300
   20CHTO    C4 8431   6.386   1.993   5.001  0.4463 -0.9517  0.0062
   20CHTO   H17 8432   6.329   1.964   4.913  0.6356 -0.0928 -0.4098
   20CHTO    O1 8433   6.424   2.133   5.000 -0.0922 -0.2640 -1.0624
   20CHTO    C5 8434   6.502   2.170   4.887  0.0758 -0.1962 -0.1339
   20CHTO   H18 8435   6.452   2.143   4.794 -2.2196  0.2497  0.9314
   20CHTO   C16 8436   6.528   2.318   4.886 -0.1362  0.2231 -0.9618
   20CHTO   O11 8437   6.406   2.397   4.888 -0.6076  0.5055 -0.0694
   20CHTO    H5 8438   6.368   2.403   4.973 -0.0719  1.3843  0.1086
   20CHTO    O3 8439   6.302   1.988   5.126  0.1967  0.1434  0.3757
   20CHTO    C6 8440   6.162   2.006   5.118 -0.0200 -0.5109 -0.0646
   20CHTO   H19 8441   6.120   2.040   5.023  0.3712 -3.0103 -1.1772
   20CHTO    C8 8442   6.088   1.878   5.155  0.3933 -0.4343 -0.5792
   20CHTO   H21 8443   6.142   1.835   5.239  0.2322  0.7520  0.1486
   20CHTO    O7 8444   6.093   1.802   5.034 -0.2240  0.2780 -0.1761
   20CHTO    H2 8445   6.144   1.724   5.047 -0.9797 -0.5120 -1.8718
   20CHTO   C12 8446   5.935   1.914   5.191  0.2044  0.0987 -0.0565
   20CHTO   H25 8447   5.884   1.947   5.098  1.3447  0.4434 -0.5613
   20CHTO    N3 8448   5.856   1.792   5.237 -0.0555 -0.5865  0.7636
   20CHTO   H12 8449   5.931   1.723   5.272 -1.6727 -2.6455  0.2700
   20CHTO   H13 8450   5.785   1.822   5.313 -0.1273  0.5640  0.2541
   20CHTO   C15 8451   5.921   2.035   5.292  0.0614  0.7190  0.1687
   20CHTO   H28 8452   5.951   2.014   5.395 -0.7924  0.0212  0.2792
   20CHTO   O10 8453   5.778   2.086   5.296 -0.4124 -1.0077  0.4996
   20CHTO    H4 8454   5.718   2.041   5.351 -1.9337 -0.8174 -0.9672
   20CHTO    O5 8455   5.992   2.147   5.233 -0.5179  0.0800 -0.2920
   20CHTO   C10 8456   6.133   2.122   5.221 -0.7621 -0.0425 -0.2263
   20CHTO   H23 8457   6.168   2.094   5.320  0.5712 -0.2909 -0.7597
   20CHTO   C17 8458   6.195   2.257   5.179 -0.7728 -0.6981 -0.0245
   20CHTO   O12 8459   6.197   2.353   5.283 -0.6173  0.1896  0.0965
   20CHTO    H6 8460   6.234   2.432   5.248 -1.9399  1.1951  0.9201
   21GLOH   H03 8461   8.670   4.185   2.507  0.2756  0.2715  1.1218
   21GLOH    O1 8462   8.751   4.139   2.536  0.4819 -0.5501 -0.7381
   21GLOH    C1 8463   8.862   4.142   2.446 -0.4093  0.4074 -0.4386
   21GLOH   H02 8464   8.950   4.099   2.494 -0.5556  1.6669  0.9918
   21GLOH   H08 8465   8.892   4.245   2.424  0.6449  0.0629 -0.6289
   21GLOH    C2 8466   8.828   4.080   2.307  0.1976 -0.6412 -0.1273
   21GLOH   H04 8467   8.795   3.978   2.330 -0.3253 -1.1216 -2.8443
   21GLOH    O2 8468   8.712   4.150   2.244  0.1591 -0.8596  0.5688
   21GLOH   H05 8469   8.697   4.128   2.150  0.4016 -1.6834  0.7145
   21GLOH    C3 8470   8.961   4.068   2.226  0.3422  0.3262 -0.2615
   21GLOH   H06 8471   8.956   4.014   2.131  1.3831  1.6113 -1.0736
   21GLOH   H07 8472   9.022   4.009   2.294 -1.6133 -0.3784  0.9177
   21GLOH    O3 8473   9.020   4.198   2.208  0.1469  0.4496 -0.4611
   21GLOH   H01 8474   9.113   4.188   2.179 -0.0648 -1.7037 -0.4025
   22GLOH   H03 8475   3.913   5.913   3.123  0.1114 -1.1266  0.7729
   22GLOH    O1 8476   3.957   5.898   3.038 -0.0702  0.3788  0.3973
   22GLOH    C1 8477   3.857   5.828   2.955  0.6601  0.0800  0.1966
   22GLOH   H02 8478   3.850   5.721   2.977 -0.9178 -0.3602 -2.3004
   22GLOH   H08 8479   3.891   5.821   2.852  0.4000  0.7765  0.0653
   22GLOH    C2 8480   3.716   5.882   2.971 -0.5296 -0.5771 -0.1261
   22GLOH   H04 8481   3.715   5.990   2.949 -1.9843 -0.5278  0.1271
   22GLOH    O2 8482   3.637   5.813   2.871 -0.1193 -0.4149 -0.3343
   22GLOH   H05 8483   3.549   5.848   2.892  0.9660  0.3387  3.2708
   22GLOH    C3 8484   3.658   5.861   3.113 -0.4460  0.7704  0.6010
   22GLOH   H06 8485   3.667   5.755   3.136  1.8436  1.2417  1.9351
   22GLOH   H07 8486   3.553   5.890   3.120 -0.7881  0.1264 -1.4762
   22GLOH    O3 8487   3.740   5.928   3.214  0.4705 -0.0157 -0.3659
   22GLOH   H01 8488   3.680   5.975   3.274 -0.1275  0.6927 -1.4969
   23GLOH   H03 8489   8.057   8.353   3.743  0.4067  1.5167 -1.1934
   23GLOH    O1 8490   8.143   8.307   3.731 -0.0782 -0.0018  0.8766
   23GLOH    C1 8491   8.119   8.164   3.718  0.0576 -0.1943  0.2748
   23GLOH   H02 8492   8.017   8.138   3.746  0.3240 -0.4187  1.0502
   23GLOH   H08 8493   8.180   8.126   3.800 -1.1696  1.6163  2.0724
   23GLOH    C2 8494   8.171   8.106   3.588 -0.1398 -0.0219  0.0741
   23GLOH   H04 8495   8.133   8.157   3.498 -2.5783 -1.3820  0.3132
   23GLOH    O2 8496   8.317   8.103   3.574 -0.2824  0.2511 -0.1611
   23GLOH   H05 8497   8.349   8.040   3.508  0.4257 -0.7974  1.1517
   23GLOH    C3 8498   8.124   7.956   3.584 -0.0329  0.3013  0.0261
   23GLOH   H06 8499   8.183   7.908   3.662  1.1281  1.8996  0.1624
   23GLOH   H07 8500   8.159   7.910   3.492 -0.0354 -0.7964  0.5666
   23GLOH    O3 8501   7.987   7.935   3.596  0.2160  0.5333  0.7596
   23GLOH   H01 8502   7.966   7.873   3.668 -1.5157  3.0781  2.5557
   24GLOH   H03 8503   8.108   3.931   2.533 -0.9022 -1.7470 -0.5040
   24GLOH    O1 8504   8.155   3.880   2.603  0.2735 -0.1560 -0.1133
   24GLOH    C1 8505   8.276   3.962   2.644  0.3670  1.0342 -0.1492
   24GLOH   H02 8506   8.355   3.901   2.687 -0.7509 -0.1116  0.3144
   24GLOH   H08 8507   8.236   4.020   2.727  0.6915  2.1237 -0.7435
   24GLOH    C2 8508   8.325   4.057   2.536 -0.1008  0.2723  0.4192
   24GLOH   H04 8509   8.231   4.111   2.514 -0.3608 -0.6988 -0.9363
   24GLOH    O2 8510   8.414   4.157   2.596 -0.2249 -0.1168  0.0189
   24GLOH   H05 8511   8.455   4.212   2.527  1.6436 -0.3190  0.9305
   24GLOH    C3 8512   8.384   3.976   2.415 -0.4976 -0.1837  0.2761
   24GLOH   H06 8513   8.442   3.891   2.452  0.8405 -0.3169 -2.0745
   24GLOH   H07 8514   8.461   4.037   2.368 -0.2142 -0.4846  0.3516
   24GLOH    O3 8515   8.289   3.941   2.314  0.4296 -0.4625  0.3294
   24GLOH   H01 8516   8.232   4.019   2.302  1.3900  0.2024  0.0081
   25GLOH   H03 8517   4.918   8.598   2.241  0.9597 -0.1607  0.2682
   25GLOH    O1 8518   4.938   8.673   2.183  0.2811 -0.3317 -0.1918
   25GLOH    C1 8519   4.827   8.693   2.096  0.9900  0.2442  0.4486
   25GLOH   H02 8520   4.795   8.797   2.100 -2.2249 -0.5792 -2.1289
   25GLOH   H08 8521   4.743   8.630   2.124  1.7339 -0.7432  0.5009
   25GLOH    C2 8522   4.852   8.665   1.946  0.1205  0.9946 -0.1542
   25GLOH   H04 8523   4.935   8.733   1.920  2.4365 -1.6933 -0.1013
   25GLOH    O2 8524   4.901   8.530   1.924  0.4547 -0.1825 -0.1102
   25GLOH   H05 8525   4.984   8.528   1.975 -0.3235 -4.9880  1.1098
   25GLOH    C3 8526   4.718   8.676   1.872 -0.0296 -0.4087  0.5368
   25GLOH   H06 8527   4.645   8.599   1.897 -0.4019 -0.8454 -1.7993
   25GLOH   H07 8528   4.738   8.665   1.766  0.7207 -1.4873  0.7741
   25GLOH    O3 8529   4.654   8.804   1.881  0.4662  0.1721  0.1719
   25GLOH   H01 8530   4.559   8.788   1.863  0.6039 -0.2368 -0.2225
   26GLOH   H03 8531   6.069   9.085   4.708  3.5775 -0.1417  1.9023
   26GLOH    O1 8532   6.073   8.992   4.681 -0.0102 -0.0110  0.6471
   26GLOH    C1 8533   5.957   8.960   4.600 -0.0009 -0.2936 -0.2974
   26GLOH   H02 8534   5.869   8.948   4.663 -1.0614 -1.1812 -1.8818
   26GLOH   H08 8535   5.977   8.871   4.541  2.6831  0.3834 -0.4896
   26GLOH    C2 8536   5.920   9.076   4.505  0.0769  0.4339  0.8099
   26GLOH   H04 8537   6.006   9.074   4.437  1.3860 -2.4341  2.4783
   26GLOH    O2 8538   5.796   9.054   4.427 -0.1603 -0.1114  0.7272
   26GLOH   H05 8539   5.828   8.993   4.359 -3.3916 -0.9981 -0.0609
   26GLOH    C3 8540   5.912   9.210   4.578 -0.0606 -0.7869 -0.2637
   26GLOH   H06 8541   5.827   9.216   4.646 -1.2816  0.4681 -1.8994
   26GLOH   H07 8542   5.887   9.280   4.499  0.3304  0.0529  0.3431
   26GLOH    O3 8543   6.035   9.245   4.645 -0.4725 -0.0305 -0.7248
   26GLOH   H01 8544   6.080   9.314   4.593 -1.8583 -0.7542 -2.9150
   27GLOH   H03 8545   1.645   6.929   4.138  1.1864 -1.2307  0.3123
   27GLOH    O1 8546   1.567   6.921   4.196  0.3693  0.5438 -0.5050
   27GLOH    C1 8547   1.590   7.008   4.305 -0.6207 -0.7711  0.0722
   27GLOH   H02 8548   1.541   7.104   4.286 -0.6130 -0.7139  0.3373
   27GLOH   H08 8549   1.698   7.021   4.310 -0.4075 -1.7135 -1.7465
   27GLOH    C2 8550   1.538   6.945   4.438 -0.3662  0.7545 -0.1074
   27GLOH   H04 8551   1.611   6.872   4.475 -0.4721  0.4673 -0.4664
   27GLOH    O2 8552   1.524   7.040   4.547 -0.1372 -0.3667 -0.3022
   27GLOH   H05 8553   1.601   7.096   4.564 -1.8432  1.8159  0.4824
   27GLOH    C3 8554   1.403   6.866   4.416  0.2978 -0.8142 -0.1999
   27GLOH   H06 8555   1.435   6.776   4.363  0.4968 -2.0180  1.9441
   27GLOH   H07 8556   1.332   6.924   4.357  1.1036 -0.1545 -0.5307
   27GLOH    O3 8557   1.327   6.837   4.534 -0.3391 -0.2306 -0.1106
   27GLOH   H01 8558   1.389   6.861   4.606  0.7674  1.6913 -1.6352
   28GLOH   H03 8559   4.400   3.486   1.118 -0.1046 -0.1189  1.7124
   28GLOH    O1 8560   4.315   3.533   1.128 -0.0553  0.5470 -0.6815
   28GLOH    C1 8561   4.343   3.675   1.140  0.1576 -0.1795 -0.7081
   28GLOH   H02 8562   4.436   3.696   1.193 -0.1226 -2.8475  0.9210
   28GLOH   H08 8563   4.267   3.728   1.198  0.5659  0.6962 -0.9635
   28GLOH    C2 8564   4.334   3.742   1.001  0.0601  0.3887 -0.4676
   28GLOH   H04 8565   4.350   3.850   0.993 -1.9111  0.5903 -2.0079
   28GLOH    O2 8566   4.442   3.683   0.916 -0.2968  0.2613 -0.0513
   28GLOH   H05 8567   4.458   3.592   0.945  1.1368  0.6808  0.4872
   28GLOH    C3 8568   4.199   3.717   0.936  0.2158 -0.9291  0.4789
   28GLOH   H06 8569   4.122   3.750   1.005 -0.6842  1.1055 -1.4598
   28GLOH   H07 8570   4.173   3.612   0.921  0.7226 -1.3932  2.7528
   28GLOH    O3 8571   4.190   3.797   0.813 -0.2283  0.6211  0.0871
   28GLOH   H01 8572   4.183   3.736   0.737 -0.3706  0.9251 -0.1443
   29GLOH   H03 8573   3.804   3.802   3.846  0.1801  0.3235  0.2475
   29GLOH    O1 8574   3.718   3.845   3.829  0.2896  0.4985  0.1416
   29GLOH    C1 8575   3.717   3.975   3.886 -0.3850  0.5082  0.5333
   29GLOH   H02 8576   3.807   4.035   3.874  1.3237 -2.1584 -0.5730
   29GLOH   H08 8577   3.705   3.962   3.993  0.8474 -0.6607  0.5376
   29GLOH    C2 8578   3.592   4.040   3.822 -0.4038 -0.3113 -0.0318
   29GLOH   H04 8579   3.587   4.140   3.866 -0.6428 -0.5192  0.4175
   29GLOH    O2 8580   3.623   4.067   3.684  0.6024 -0.1552 -0.1606
   29GLOH   H05 8581   3.654   3.987   3.639 -3.1465 -1.0720 -1.2513
   29GLOH    C3 8582   3.454   3.970   3.848 -0.1596 -0.1769  0.8429
   29GLOH   H06 8583   3.450   3.874   3.796 -2.3098 -0.1883  1.0246
   29GLOH   H07 8584   3.376   4.028   3.800  1.6432  0.4402 -1.4321
   29GLOH    O3 8585   3.428   3.954   3.981 -0.1276  0.5616 -0.6192
   29GLOH   H01 8586   3.410   4.041   4.021 -0.9288  0.6827 -1.2301
   30GLOH   H03 8587   8.702   6.898   0.143 -0.3568  1.5272  0.4872
   30GLOH    O1 8588   8.742   6.905   0.232  0.4166 -0.8759  0.3582
   30GLOH    C1 8589   8.753   7.042   0.263 -0.0016 -0.8111 -0.2535
   30GLOH   H02 8590   8.692   7.104   0.197  0.9408  2.9014  2.1931
   30GLOH   H08 8591   8.854   7.078   0.243 -0.1555  0.5335  1.2820
   30GLOH    C2 8592   8.721   7.080   0.405  0.0170  0.0216 -0.6907
   30GLOH   H04 8593   8.801   7.036   0.466 -1.0984 -0.4276  0.4995
   30GLOH    O2 8594   8.718   7.224   0.430 -0.3635  0.1379  0.4709
   30GLOH   H05 8595   8.809   7.255   0.445 -0.4961  0.9160 -0.2670
   30GLOH    C3 8596   8.588   7.007   0.452  0.3827 -0.2930  0.5624
   30GLOH   H06 8597   8.521   7.027   0.367  2.8916 -0.0281 -1.4229
   30GLOH   H07 8598   8.553   7.057   0.542  1.4670 -0.5590  1.1328
   30GLOH    O3 8599   8.600   6.866   0.484  0.6239  0.4793  0.1173
   30GLOH   H01 8600   8.560   6.802   0.423 -0.6663  0.2410  1.1933
   31GLOH   H03 8601   1.338   5.150   0.110  0.9172 -0.1958  1.1265
   31GLOH    O1 8602   1.407   5.217   0.130 -0.3357  1.1433  1.0264
   31GLOH    C1 8603   1.503   5.168   0.220 -1.0460 -0.1300  0.0745
   31GLOH   H02 8604   1.573   5.111   0.160 -0.9998  0.8604 -0.8364
   31GLOH   H08 8605   1.461   5.094   0.287  0.1344 -0.7638  0.1178
   31GLOH    C2 8606   1.581   5.270   0.306 -0.5756 -0.4243  0.1150
   31GLOH   H04 8607   1.503   5.320   0.365 -0.5917  0.5694 -0.7308
   31GLOH    O2 8608   1.678   5.195   0.383  0.1055 -0.1612 -0.2648
   31GLOH   H05 8609   1.636   5.155   0.461 -0.6596  0.3516 -0.4137
   31GLOH    C3 8610   1.655   5.381   0.225  0.3675  0.1515  1.0092
   31GLOH   H06 8611   1.724   5.333   0.156 -0.3330  0.9739 -0.2861
   31GLOH   H07 8612   1.712   5.441   0.296  0.8215  0.3319  0.4914
   31GLOH    O3 8613   1.567   5.451   0.133 -0.2942  0.0943  0.9510
   31GLOH   H01 8614   1.576   5.404   0.048  0.7068 -0.3690  1.2986
   32GLOH   H03 8615   0.560   0.411   4.397  3.4192  1.8937 -1.5224
   32GLOH    O1 8616   0.620   0.363   4.458  0.5804  0.1844  0.0299
   32GLOH    C1 8617   0.722   0.445   4.513  0.3086 -0.1921  0.8608
   32GLOH   H02 8618   0.676   0.509   4.588 -0.8422  0.0074 -0.0064
   32GLOH   H08 8619   0.760   0.513   4.436 -2.4415 -0.8947 -1.1861
   32GLOH    C2 8620   0.837   0.367   4.580 -0.4985  0.4100  0.5489
   32GLOH   H04 8621   0.883   0.299   4.507  0.8271 -0.8587  2.5039
   32GLOH    O2 8622   0.933   0.462   4.633  0.2323 -0.1194  0.4914
   32GLOH   H05 8623   1.018   0.468   4.587 -0.1098  2.3017  0.0920
   32GLOH    C3 8624   0.793   0.278   4.699  0.5560 -0.1749 -0.8954
   32GLOH   H06 8625   0.779   0.334   4.791  2.4046 -0.0493 -0.6725
   32GLOH   H07 8626   0.873   0.205   4.714  0.1961 -0.0821  1.5446
   32GLOH    O3 8627   0.668   0.198   4.665 -0.2783  0.2704 -0.0072
   32GLOH   H01 8628   0.625   0.239   4.588 -1.1319 -0.6131 -0.0101
   33GLOH   H03 8629   1.619  10.103   4.357  0.6301 -1.3319  0.2242
   33GLOH    O1 8630   1.541  10.077   4.409 -0.0038 -0.0840 -0.0867
   33GLOH    C1 8631   1.556   9.960   4.490 -0.0836  0.2868  0.7358
   33GLOH   H02 8632   1.477   9.956   4.564  2.3297  0.5125  3.4395
   33GLOH   H08 8633   1.649   9.979   4.545  0.1002 -0.3550  0.6446
   33GLOH    C2 8634   1.563   9.823   4.415 -0.4028  0.5787 -0.4057
   33GLOH   H04 8635   1.657   9.821   4.358  1.7885  1.4963  3.0662
   33GLOH    O2 8636   1.569   9.709   4.511 -0.4665 -0.6321 -0.6444
   33GLOH   H05 8637   1.648   9.717   4.567 -1.8536 -0.4129  1.3295
   33GLOH    C3 8638   1.443   9.803   4.323  0.1316  0.5729 -0.2562
   33GLOH   H06 8639   1.347   9.817   4.374 -0.5698  0.4711 -1.5317
   33GLOH   H07 8640   1.439   9.700   4.286 -1.6655  1.0176 -1.3403
   33GLOH    O3 8641   1.443   9.893   4.212  0.6495 -0.3503 -0.1734
   33GLOH   H01 8642   1.350   9.899   4.182  1.1521  0.8645 -1.5331
   34GLOH   H03 8643   7.938   8.693   5.782  0.5882  2.4944 -2.1661
   34GLOH    O1 8644   7.951   8.629   5.709  0.2123  0.1601 -0.2506
   34GLOH    C1 8645   7.878   8.667   5.587 -0.1064  0.7585 -0.1051
   34GLOH   H02 8646   7.887   8.775   5.582 -0.7549  0.7307 -2.1940
   34GLOH   H08 8647   7.772   8.644   5.594  0.1245  0.2310  1.8906
   34GLOH    C2 8648   7.929   8.607   5.450 -0.0090 -0.0874  0.0375
   34GLOH   H04 8649   7.898   8.502   5.446  1.0324 -0.4743  1.6159
   34GLOH    O2 8650   7.873   8.687   5.347 -0.0081  0.4001 -0.3853
   34GLOH   H05 8651   7.880   8.645   5.260 -3.2241  0.7022 -0.8497
   34GLOH    C3 8652   8.084   8.611   5.448 -0.0858 -0.2819  0.2923
   34GLOH   H06 8653   8.125   8.712   5.440 -0.2995 -0.1975  0.2711
   34GLOH   H07 8654   8.123   8.552   5.365  1.8923  1.6413 -0.1881
   34GLOH    O3 8655   8.147   8.550   5.564  0.2342  0.4446  0.1354
   34GLOH   H01 8656   8.089   8.559   5.642 -1.7485  2.1217 -1.4827
   35GLOH   H03 8657   3.908   2.006   0.080 -0.1663  0.3791  1.9320
   35GLOH    O1 8658   4.003   2.007   0.103  0.3169  0.1571  0.0696
   35GLOH    C1 8659   4.082   2.066   0.001  0.2701  0.6977 -0.2231
   35GLOH   H02 8660   4.033   2.153  -0.043  2.6570  0.5957 -3.3247
   35GLOH   H08 8661   4.097   1.997  -0.082 -0.7326 -0.6655  0.7026
   35GLOH    C2 8662   4.214   2.114   0.044  0.2557 -0.4399 -0.0763
   35GLOH   H04 8663   4.266   2.022   0.073 -0.4250 -1.3015 -1.4933
   35GLOH    O2 8664   4.304   2.171  -0.059  0.1990  0.1085  0.0949
   35GLOH   H05 8665   4.256   2.195  -0.140  0.4381  0.1703 -0.0295
   35GLOH    C3 8666   4.190   2.212   0.156  0.3265 -0.6025 -0.3433
   35GLOH   H06 8667   4.287   2.234   0.200 -1.0765  3.9043  0.7986
   35GLOH   H07 8668   4.128   2.167   0.234 -0.4725  1.2781  0.1346
   35GLOH    O3 8669   4.134   2.338   0.122 -0.1183 -0.7127  0.0141
   35GLOH   H01 8670   4.173   2.361   0.036  1.1828 -1.6374  0.3305
   36GLOH   H03 8671   4.843   8.507   0.148 -1.3034 -1.1959 -1.1105
   36GLOH    O1 8672   4.865   8.453   0.225 -0.4393  0.6214 -0.0453
   36GLOH    C1 8673   4.783   8.335   0.221  0.1231  0.2143 -0.4874
   36GLOH   H02 8674   4.734   8.335   0.124 -0.4087 -1.7711 -0.2276
   36GLOH   H08 8675   4.709   8.342   0.301  0.6665 -3.5912  0.4419
   36GLOH    C2 8676   4.862   8.205   0.238  0.7232  0.1699  0.4839
   36GLOH   H04 8677   4.867   8.183   0.346 -2.7188 -2.7012  0.1416
   36GLOH    O2 8678   4.796   8.089   0.177  0.6079 -0.3872 -0.5226
   36GLOH   H05 8679   4.731   8.047   0.235  2.3485 -1.4932  0.6586
   36GLOH    C3 8680   5.008   8.216   0.181 -0.0235  0.6640  0.2600
   36GLOH   H06 8681   4.996   8.244   0.076 -1.0209 -1.4867 -0.2074
   36GLOH   H07 8682   5.051   8.116   0.180 -1.6566 -0.0871  2.3231
   36GLOH    O3 8683   5.082   8.325   0.243 -0.0007 -0.3947  0.0967
   36GLOH   H01 8684   5.030   8.405   0.226 -1.3389 -1.2919 -0.1567
   37GLOH   H03 8685   4.437   4.020   4.229 -0.5635  0.7469 -1.1065
   37GLOH    O1 8686   4.392   3.940   4.195 -0.1602 -0.1043  0.3276
   37GLOH    C1 8687   4.452   3.924   4.071 -0.2368 -0.0116  0.0560
   37GLOH   H02 8688   4.553   3.962   4.081  0.5398 -0.8735 -3.5459
   37GLOH   H08 8689   4.413   3.982   3.987  1.9022  1.9705  0.4043
   37GLOH    C2 8690   4.458   3.773   4.016  0.1624  0.3080 -0.6147
   37GLOH   H04 8691   4.355   3.734   4.009 -0.8316  2.9967 -1.9693
   37GLOH    O2 8692   4.508   3.770   3.881 -0.4398  0.1441 -0.5664
   37GLOH   H05 8693   4.433   3.801   3.827 -1.6049  0.6479  1.2845
   37GLOH    C3 8694   4.547   3.687   4.109 -0.1255  0.3072 -0.0161
   37GLOH   H06 8695   4.647   3.730   4.116 -0.1379 -0.0953  3.7699
   37GLOH   H07 8696   4.566   3.591   4.061 -0.3313  0.7118 -0.9104
   37GLOH    O3 8697   4.493   3.671   4.236 -0.1101 -0.3047  0.6629
   37GLOH   H01 8698   4.440   3.752   4.247 -0.6097 -0.5620  0.1533
   38GLOH   H03 8699   7.116   4.069   0.093  0.1460 -2.4496  1.6745
   38GLOH    O1 8700   7.209   4.094   0.111 -0.1206 -0.0076 -0.0711
   38GLOH    C1 8701   7.244   4.093   0.254 -0.3340 -0.3595  0.1533
   38GLOH   H02 8702   7.197   4.176   0.308 -1.1468 -1.3612  0.9888
   38GLOH   H08 8703   7.351   4.107   0.268 -1.0046  2.5856  3.1037
   38GLOH    C2 8704   7.209   3.962   0.320 -0.6720  0.4054  0.0901
   38GLOH   H04 8705   7.109   3.935   0.283 -0.2940 -0.7932 -0.1197
   38GLOH    O2 8706   7.294   3.855   0.264 -0.2673 -0.4178 -0.9851
   38GLOH   H05 8707   7.282   3.837   0.169  0.6048 -2.4860 -0.7248
   38GLOH    C3 8708   7.208   3.982   0.473  0.3162  0.0712  0.3495
   38GLOH   H06 8709   7.301   4.014   0.520  0.2125 -0.7021  1.1022
   38GLOH   H07 8710   7.200   3.881   0.513  0.0741 -0.3267 -0.6944
   38GLOH    O3 8711   7.093   4.067   0.503 -0.6719 -0.0439 -0.0084
   38GLOH   H01 8712   7.095   4.075   0.600  0.1241  1.9241 -0.1564
   39GLOH   H03 8713   7.208   3.498   0.595  0.7511  0.4140  0.7984
   39GLOH    O1 8714   7.160   3.469   0.674  0.3743 -0.2169  0.3427
   39GLOH    C1 8715   7.102   3.597   0.717  0.2448 -0.0040  0.4029
   39GLOH   H02 8716   7.020   3.573   0.784  0.5092  0.8910  1.0639
   39GLOH   H08 8717   7.068   3.649   0.628 -2.0835 -1.0693  0.6355
   39GLOH    C2 8718   7.209   3.686   0.788  0.8322 -0.3008  0.1739
   39GLOH   H04 8719   7.275   3.733   0.713 -0.2391  2.6682  0.9934
   39GLOH    O2 8720   7.139   3.788   0.867  0.2174  0.1832  0.5602
   39GLOH   H05 8721   7.129   3.745   0.954 -0.6921 -0.0030  0.3609
   39GLOH    C3 8722   7.305   3.608   0.875 -0.7753  0.4465  0.2119
   39GLOH   H06 8723   7.389   3.669   0.908 -0.3169 -0.1602  0.1626
   39GLOH   H07 8724   7.352   3.533   0.812  1.6262  0.2636  2.1633
   39GLOH    O3 8725   7.232   3.547   0.978  0.4451 -0.1039 -0.3398
   39GLOH   H01 8726   7.272   3.460   1.000 -0.2495  0.1359  2.0730
   40GLOH   H03 8727   5.819   0.150   2.796  0.9075 -0.2142 -0.4578
   40GLOH    O1 8728   5.847   0.218   2.860  0.0220  0.1038 -0.4098
   40GLOH    C1 8729   5.960   0.276   2.804 -0.5981 -0.3198 -0.1504
   40GLOH   H02 8730   5.956   0.271   2.696 -2.7350  0.3736 -0.1206
   40GLOH   H08 8731   6.049   0.222   2.836  0.6524  0.4787 -2.1857
   40GLOH    C2 8732   5.971   0.423   2.848 -1.4440 -0.2959  0.4295
   40GLOH   H04 8733   5.963   0.420   2.958  1.4398  0.5498  0.6878
   40GLOH    O2 8734   6.109   0.465   2.823  0.7282 -0.1256  0.1620
   40GLOH   H05 8735   6.118   0.559   2.847 -1.3781 -0.2081  1.4485
   40GLOH    C3 8736   5.860   0.515   2.802  0.1584 -0.1224 -0.4133
   40GLOH   H06 8737   5.864   0.611   2.853 -1.5971  0.0311 -0.5553
   40GLOH   H07 8738   5.761   0.476   2.828 -0.2050  0.3461 -1.1013
   40GLOH    O3 8739   5.851   0.527   2.660 -0.3506 -0.1463  0.7905
   40GLOH   H01 8740   5.930   0.578   2.635 -0.5222 -0.3794 -0.2455
   41GLOH   H03 8741   7.055   3.448   5.572 -0.6001  0.0379  3.1168
   41GLOH    O1 8742   7.081   3.355   5.585 -0.0259 -0.1736  0.7112
   41GLOH    C1 8743   7.220   3.354   5.574  0.4598  0.0427  0.5205
   41GLOH   H02 8744   7.269   3.263   5.608  0.0264 -0.1402  0.6557
   41GLOH   H08 8745   7.265   3.435   5.631 -0.8830 -0.1549  1.8788
   41GLOH    C2 8746   7.265   3.388   5.431 -0.2900 -0.5919  0.1224
   41GLOH   H04 8747   7.264   3.497   5.421  2.3257 -0.5526 -0.1282
   41GLOH    O2 8748   7.401   3.349   5.411  0.3996 -0.5061  0.0979
   41GLOH   H05 8749   7.453   3.427   5.389  0.7282 -0.4843  0.9245
   41GLOH    C3 8750   7.184   3.328   5.314  0.0776 -0.7122  0.8328
   41GLOH   H06 8751   7.211   3.224   5.296 -0.6319 -0.7456 -0.0760
   41GLOH   H07 8752   7.214   3.379   5.222 -0.0764  1.2997  1.8756
   41GLOH    O3 8753   7.046   3.343   5.334  0.5477  0.5565 -0.3324
   41GLOH   H01 8754   7.034   3.339   5.431  0.5960 -1.7614 -0.4053
   42GLOH   H03 8755   4.433   4.535   4.993  0.1739 -0.9733 -0.8404
   42GLOH    O1 8756   4.519   4.538   4.947  0.4068  0.0308 -0.3349
   42GLOH    C1 8757   4.557   4.675   4.947 -1.3256 -0.3250 -0.2332
   42GLOH   H02 8758   4.469   4.737   4.952 -2.4052 -1.4323 -3.7514
   42GLOH   H08 8759   4.604   4.705   4.853 -2.0174  0.7510 -0.2425
   42GLOH    C2 8760   4.652   4.713   5.059 -0.3379  0.3227 -0.7276
   42GLOH   H04 8761   4.736   4.643   5.059 -0.4640  0.1638 -1.5507
   42GLOH    O2 8762   4.701   4.842   5.037 -0.4687 -0.3127 -0.0634
   42GLOH   H05 8763   4.716   4.891   5.120 -1.2084  1.7823 -1.1155
   42GLOH    C3 8764   4.583   4.711   5.196  0.2883  0.4110 -0.0141
   42GLOH   H06 8765   4.557   4.607   5.217 -0.4128  0.7243  0.7327
   42GLOH   H07 8766   4.492   4.770   5.183  1.2590  1.8498 -0.3474
   42GLOH    O3 8767   4.647   4.786   5.301 -0.4368 -0.6497 -0.4276
   42GLOH   H01 8768   4.581   4.791   5.372  1.0974 -1.0620  1.0663
   43GLOH   H03 8769   7.004   4.152   0.400  0.2545 -0.2274 -0.7851
   43GLOH    O1 8770   6.935   4.190   0.343 -0.1232 -0.0893 -0.2422
   43GLOH    C1 8771   6.822   4.240   0.415  0.2736 -0.0727  0.0530
   43GLOH   H02 8772   6.830   4.343   0.450  2.9171 -0.6788  1.3010
   43GLOH   H08 8773   6.814   4.172   0.499  1.2999  0.9058  0.9605
   43GLOH    C2 8774   6.691   4.225   0.327  0.2548  0.2928 -0.9977
   43GLOH   H04 8775   6.687   4.117   0.307  0.6920  0.3804 -1.5771
   43GLOH    O2 8776   6.586   4.267   0.417 -0.8738 -0.6612 -0.0125
   43GLOH   H05 8777   6.505   4.252   0.366  0.7019 -1.2698 -2.4479
   43GLOH    C3 8778   6.703   4.308   0.200  0.5484 -0.0790  0.7532
   43GLOH   H06 8779   6.734   4.407   0.234 -0.3655  0.5907 -0.3167
   43GLOH   H07 8780   6.610   4.306   0.142  1.0064  0.4338 -0.0134
   43GLOH    O3 8781   6.807   4.243   0.125  0.0664  0.1530 -0.0129
   43GLOH   H01 8782   6.875   4.230   0.194 -1.5525 -0.3875  1.4921
   44GLOH   H03 8783   1.086   1.392   1.793  0.4024 -0.5917  0.1553
   44GLOH    O1 8784   1.051   1.357   1.708  0.2220 -0.0287 -0.0063
   44GLOH    C1 8785   0.905   1.354   1.702 -0.4394 -0.1405  0.3585
   44GLOH   H02 8786   0.885   1.460   1.686 -4.5814 -0.5391  2.3246
   44GLOH   H08 8787   0.868   1.319   1.798  1.2015 -0.4313  0.9050
   44GLOH    C2 8788   0.860   1.250   1.597  0.5888  0.0266 -0.3120
   44GLOH   H04 8789   0.880   1.144   1.620 -2.7470 -0.6999 -0.6043
   44GLOH    O2 8790   0.719   1.259   1.592  0.0703 -0.5782  0.3618
   44GLOH   H05 8791   0.685   1.206   1.518 -0.6998  1.1022 -0.5193
   44GLOH    C3 8792   0.919   1.300   1.460  0.3575 -0.1888 -0.5847
   44GLOH   H06 8793   1.015   1.351   1.470 -0.7482  2.0264 -0.9507
   44GLOH   H07 8794   0.856   1.373   1.409 -0.2611 -2.6375 -3.4086
   44GLOH    O3 8795   0.937   1.186   1.377 -0.1294 -0.1344 -0.4145
   44GLOH   H01 8796   0.906   1.209   1.287 -0.2038 -0.3468 -0.4443
   45GLOH   H03 8797   7.347   1.526   1.315  1.2600 -2.3938  0.1521
   45GLOH    O1 8798   7.348   1.541   1.411  0.1738 -0.0225 -0.1708
   45GLOH    C1 8799   7.372   1.680   1.434  0.9744 -0.3611 -0.2960
   45GLOH   H02 8800   7.275   1.730   1.436  1.1916  0.0815 -0.7725
   45GLOH   H08 8801   7.431   1.727   1.355  2.3813 -0.5973  0.5896
   45GLOH    C2 8802   7.439   1.716   1.571 -0.4885  0.1363 -0.7796
   45GLOH   H04 8803   7.533   1.659   1.571 -0.2005  0.5249  2.0784
   45GLOH    O2 8804   7.472   1.848   1.597 -0.3461  0.5094  0.0732
   45GLOH   H05 8805   7.511   1.859   1.685 -0.2930 -1.5839  0.3405
   45GLOH    C3 8806   7.362   1.654   1.688 -0.8921  0.3508  0.0733
   45GLOH   H06 8807   7.270   1.706   1.713 -0.7263  0.4149  0.5687
   45GLOH   H07 8808   7.431   1.655   1.772  0.0290  1.1623 -0.6837
   45GLOH    O3 8809   7.330   1.522   1.655  0.2294 -0.2240  0.4696
   45GLOH   H01 8810   7.306   1.517   1.561  2.7096 -2.2262 -0.1191
   46GLOH   H03 8811   2.769   4.848   2.388 -1.0865 -1.0839 -0.8708
   46GLOH    O1 8812   2.694   4.858   2.449  0.0118 -0.1741  0.3815
   46GLOH    C1 8813   2.719   4.816   2.583  0.1728 -0.5210  0.1385
   46GLOH   H02 8814   2.691   4.885   2.663 -1.3047  0.0280 -0.8327
   46GLOH   H08 8815   2.823   4.788   2.602  0.1502  0.7944  2.4978
   46GLOH    C2 8816   2.647   4.686   2.610 -0.1526  0.3008 -0.6447
   46GLOH   H04 8817   2.680   4.613   2.535  2.1563 -0.3064  0.8843
   46GLOH    O2 8818   2.685   4.635   2.738 -0.4457 -0.1641 -0.1656
   46GLOH   H05 8819   2.612   4.577   2.766 -0.6013 -0.4185 -1.0603
   46GLOH    C3 8820   2.495   4.689   2.589  0.1375 -0.0145  0.1284
   46GLOH   H06 8821   2.476   4.720   2.486 -0.1899  0.4554  0.3303
   46GLOH   H07 8822   2.456   4.768   2.652 -1.4485 -1.2513  0.7326
   46GLOH    O3 8823   2.428   4.565   2.613 -0.1352 -0.0763 -0.2408
   46GLOH   H01 8824   2.333   4.580   2.633 -0.5412  0.2148 -2.2891
   47GLOH   H03 8825   3.237   7.364   3.556 -0.2989  0.0635  0.2121
   47GLOH    O1 8826   3.260   7.287   3.611  0.2814  0.0738 -0.0144
   47GLOH    C1 8827   3.385   7.233   3.551  0.5023 -0.1073 -0.0800
   47GLOH   H02 8828   3.378   7.234   3.443  0.2973 -1.5011 -0.0813
   47GLOH   H08 8829   3.408   7.130   3.578 -1.9555 -0.5527  0.3841
   47GLOH    C2 8830   3.511   7.307   3.595  0.4313  0.0503  0.4952
   47GLOH   H04 8831   3.505   7.413   3.565 -3.3871  0.4561  2.3487
   47GLOH    O2 8832   3.517   7.306   3.737 -0.5460  0.2074 -0.0663
   47GLOH   H05 8833   3.548   7.394   3.765 -2.3024  0.6244  0.6862
   47GLOH    C3 8834   3.636   7.256   3.523  0.6233 -1.0896  0.2884
   47GLOH   H06 8835   3.657   7.153   3.550  1.5479 -1.0375 -0.2158
   47GLOH   H07 8836   3.721   7.315   3.557  0.2329  0.9918 -2.1570
   47GLOH    O3 8837   3.616   7.272   3.379 -0.7011 -0.3165  0.0947
   47GLOH   H01 8838   3.692   7.313   3.332 -1.7616  0.3795 -1.0324
   48GLOH   H03 8839   0.332   3.690   3.723  0.9834  1.5945 -2.8329
   48GLOH    O1 8840   0.416   3.717   3.764  0.1177 -0.0283  0.1462
   48GLOH    C1 8841   0.396   3.841   3.839  1.5630 -0.1984  0.5006
   48GLOH   H02 8842   0.479   3.846   3.909  0.6855  1.9668  1.4281
   48GLOH   H08 8843   0.302   3.828   3.894 -0.2478  0.5927 -2.2897
   48GLOH    C2 8844   0.382   3.962   3.757 -0.4588  0.1214 -0.0528
   48GLOH   H04 8845   0.473   3.962   3.696 -0.2403 -0.4109  0.2712
   48GLOH    O2 8846   0.278   3.960   3.653 -0.3760 -0.3563  0.0365
   48GLOH   H05 8847   0.198   3.932   3.700 -0.0040  0.3786  1.1179
   48GLOH    C3 8848   0.386   4.095   3.843 -0.5316 -0.2952  0.7413
   48GLOH   H06 8849   0.394   4.182   3.779 -0.8974 -0.1680  0.8663
   48GLOH   H07 8850   0.474   4.091   3.907 -1.6590 -0.8668  2.3055
   48GLOH    O3 8851   0.264   4.105   3.916  0.2958 -0.5475 -0.0847
   48GLOH   H01 8852   0.197   4.147   3.860 -0.3290 -2.1500 -0.5801
   49GLOH   H03 8853  10.068   7.244   2.704  1.3481  1.4301  0.5128
   49GLOH    O1 8854  10.022   7.319   2.662 -0.7572  0.2123  0.5360
   49GLOH    C1 8855   9.923   7.259   2.577  0.8761  0.2750 -0.4872
   49GLOH   H02 8856   9.878   7.171   2.623 -0.7682  1.1954 -0.2789
   49GLOH   H08 8857   9.964   7.215   2.487  0.0260 -1.0639 -0.2352
   49GLOH    C2 8858   9.803   7.350   2.547  0.2662  0.3964 -0.1425
   49GLOH   H04 8859   9.843   7.439   2.496  1.0488 -0.9968 -2.0082
   49GLOH    O2 8860   9.714   7.306   2.443 -0.1485 -0.2071 -0.7326
   49GLOH   H05 8861   9.721   7.209   2.439  2.1208 -0.0152 -2.7121
   49GLOH    C3 8862   9.718   7.386   2.668  0.4423 -0.1417 -0.2857
   49GLOH   H06 8863   9.713   7.294   2.726  0.8621 -0.0512 -0.1019
   49GLOH   H07 8864   9.618   7.418   2.637 -0.3038  0.3194  2.4753
   49GLOH    O3 8865   9.775   7.491   2.752  0.2089  0.3663 -0.1730
   49GLOH   H01 8866   9.835   7.460   2.821 -0.0419  1.5629  0.5965
   50GLOH   H03 8867   9.650   5.532   2.128  0.4432 -2.4785  0.0073
   50GLOH    O1 8868   9.585   5.522   2.056 -0.0173  0.0634  0.0245
   50GLOH    C1 8869   9.615   5.397   1.992  0.5645 -0.1437  0.0619
   50GLOH   H02 8870   9.518   5.358   1.960 -0.0792 -0.2992  2.1106
   50GLOH   H08 8871   9.672   5.328   2.054  2.6095  1.0478 -0.4428
   50GLOH    C2 8872   9.696   5.420   1.859 -0.2259 -0.3918 -0.4981
   50GLOH   H04 8873   9.797   5.461   1.874 -0.4684 -0.2970  0.9865
   50GLOH    O2 8874   9.712   5.294   1.790  0.0396 -0.3433 -0.1213
   50GLOH   H05 8875   9.762   5.230   1.843  0.4125 -0.3532 -0.4820
   50GLOH    C3 8876   9.627   5.530   1.770  0.1003 -0.0326  0.2701
   50GLOH   H06 8877   9.534   5.488   1.731  0.2870 -0.7533  0.5923
   50GLOH   H07 8878   9.695   5.543   1.686 -2.2612 -0.8876 -1.8255
   50GLOH    O3 8879   9.604   5.649   1.830  0.2758 -0.1985  0.1225
   50GLOH   H01 8880   9.534   5.642   1.898 -1.7635  0.4259 -1.8463
   51GLOH   H03 8881   8.488   7.839   2.559 -0.2644  2.2681  0.4608
   51GLOH    O1 8882   8.566   7.823   2.502 -0.5569 -0.1374  0.6939
   51GLOH    C1 8883   8.522   7.757   2.377 -0.3110  0.1252  0.2886
   51GLOH   H02 8884   8.598   7.757   2.299 -0.7019 -1.8534 -0.1323
   51GLOH   H08 8885   8.447   7.814   2.323 -0.9570 -1.4239 -0.4772
   51GLOH    C2 8886   8.480   7.609   2.393  0.2126  0.0738  0.1226
   51GLOH   H04 8887   8.445   7.565   2.298 -0.2465 -1.3639  0.9416
   51GLOH    O2 8888   8.585   7.530   2.451  0.1288 -0.0363  0.1472
   51GLOH   H05 8889   8.637   7.486   2.382 -0.2170  1.5454 -1.1538
   51GLOH    C3 8890   8.356   7.628   2.475 -0.3320  0.1110 -0.3464
   51GLOH   H06 8891   8.381   7.636   2.580  2.7946 -0.0671 -1.0343
   51GLOH   H07 8892   8.308   7.531   2.462  0.5402 -0.1971 -1.4019
   51GLOH    O3 8893   8.268   7.737   2.436 -0.2141 -0.1563  0.1164
   51GLOH   H01 8894   8.203   7.746   2.508  1.0474 -0.4231  1.3066
   52GLOH   H03 8895   9.656   0.598   0.055  1.3970  0.3071  2.4261
   52GLOH    O1 8896   9.629   0.690   0.075  0.5903  0.4723  0.7060
   52GLOH    C1 8897   9.494   0.713   0.029  0.3544 -0.9136 -0.1394
   52GLOH   H02 8898   9.495   0.724  -0.079 -1.1938 -0.1024 -0.0759
   52GLOH   H08 8899   9.455   0.809   0.063 -1.4927 -1.5468 -0.4078
   52GLOH    C2 8900   9.401   0.598   0.074  0.7229  0.3358  0.0235
   52GLOH   H04 8901   9.456   0.507   0.046  0.3447  0.2086 -0.3076
   52GLOH    O2 8902   9.377   0.614   0.211  0.0164  0.7145  0.2133
   52GLOH   H05 8903   9.309   0.548   0.232  2.3804 -1.2214  2.1291
   52GLOH    C3 8904   9.270   0.604  -0.005  0.3507 -0.0740 -0.0037
   52GLOH   H06 8905   9.238   0.707   0.010  0.7560  0.2230 -1.1828
   52GLOH   H07 8906   9.201   0.527   0.032  0.1977  0.8352  1.6569
   52GLOH    O3 8907   9.301   0.583  -0.148 -0.2370 -0.4734 -0.2091
   52GLOH   H01 8908   9.321   0.667  -0.194 -1.9320 -0.4174 -0.9102
   53GLOH   H03 8909   8.151   1.798   4.919  0.5293  1.8769 -1.4011
   53GLOH    O1 8910   8.098   1.750   4.853  0.7127 -0.3294 -0.0248
   53GLOH    C1 8911   8.180   1.687   4.755 -0.2390  0.6685  0.1767
   53GLOH   H02 8912   8.206   1.589   4.795  0.1110  0.1630 -1.2373
   53GLOH   H08 8913   8.275   1.732   4.728  1.0016 -1.2251  1.2509
   53GLOH    C2 8914   8.102   1.680   4.618  0.9479  0.1251  0.6207
   53GLOH   H04 8915   8.071   1.780   4.582  0.6759 -0.4646 -0.8253
   53GLOH    O2 8916   8.171   1.617   4.504 -0.0198  0.3000  0.2846
   53GLOH   H05 8917   8.115   1.630   4.426  0.0894 -0.7178  0.0228
   53GLOH    C3 8918   7.977   1.598   4.643 -0.7499 -0.4329 -0.1712
   53GLOH   H06 8919   7.918   1.602   4.551 -2.2151 -2.9836  0.6318
   53GLOH   H07 8920   7.914   1.637   4.723 -1.1795  0.4887 -0.9403
   53GLOH    O3 8921   8.008   1.459   4.670 -0.3823  0.1695 -0.0683
   53GLOH   H01 8922   8.037   1.445   4.762  0.7535  1.6632 -0.1999
   54GLOH   H03 8923   3.608   6.171   1.162  0.6434 -0.2645 -1.6194
   54GLOH    O1 8924   3.698   6.180   1.200 -0.0068  0.0251 -0.1130
   54GLOH    C1 8925   3.754   6.313   1.205 -0.2873 -0.3716  0.8184
   54GLOH   H02 8926   3.860   6.313   1.180 -0.4920  0.7966 -0.0957
   54GLOH   H08 8927   3.755   6.356   1.305 -0.9218 -1.4012  1.2653
   54GLOH    C2 8928   3.693   6.406   1.098  0.1939  0.8257 -0.4538
   54GLOH   H04 8929   3.681   6.348   1.005  1.5358 -0.9200  0.4125
   54GLOH    O2 8930   3.557   6.453   1.138 -0.4551 -0.4719 -0.2687
   54GLOH   H05 8931   3.495   6.384   1.107  0.7846 -1.2381 -1.0949
   54GLOH    C3 8932   3.788   6.523   1.063  0.3438  0.0299  0.3872
   54GLOH   H06 8933   3.805   6.582   1.153  0.2096 -0.3375  0.6549
   54GLOH   H07 8934   3.752   6.593   0.987  0.6086  1.6668  1.7438
   54GLOH    O3 8935   3.917   6.471   1.021 -0.3328  0.3784 -0.6347
   54GLOH   H01 8936   3.898   6.419   0.942 -1.2608 -0.1554 -0.0678
   55GLOH   H03 8937   1.160   1.523   1.298  0.1127 -0.0611  0.1968
   55GLOH    O1 8938   1.241   1.472   1.315 -0.0738 -0.4167  0.0122
   55GLOH    C1 8939   1.370   1.531   1.274  1.0235 -0.3032  0.0958
   55GLOH   H02 8940   1.447   1.474   1.326  2.0113 -0.1121 -1.1183
   55GLOH   H08 8941   1.382   1.635   1.303 -0.2238 -0.5640  1.5731
   55GLOH    C2 8942   1.397   1.517   1.126  0.0634 -0.1993  0.7784
   55GLOH   H04 8943   1.396   1.412   1.094 -1.5440  0.1621 -0.4331
   55GLOH    O2 8944   1.302   1.585   1.038  0.5787 -0.5110 -0.8971
   55GLOH   H05 8945   1.342   1.587   0.949  3.2377  1.7744  0.2743
   55GLOH    C3 8946   1.536   1.571   1.087  0.3936 -0.3303 -0.1763
   55GLOH   H06 8947   1.534   1.678   1.106 -0.9018 -0.3129 -0.4140
   55GLOH   H07 8948   1.553   1.550   0.981 -1.9141 -0.2333 -0.5913
   55GLOH    O3 8949   1.643   1.510   1.155 -0.1430 -0.6198  0.2038
   55GLOH   H01 8950   1.678   1.579   1.214 -0.1850 -0.6641  0.2798
   56GLOH   H03 8951  -0.010   1.050   5.090  1.2512  0.9793 -1.9842
   56GLOH    O1 8952   0.045   0.970   5.100 -0.6100 -0.0074  0.8041
   56GLOH    C1 8953   0.185   0.996   5.074  0.9191 -0.0370  0.0950
   56GLOH   H02 8954   0.219   1.060   5.156  2.0557 -0.2902 -0.1721
   56GLOH   H08 8955   0.189   1.058   4.984  1.1421 -1.3736 -0.8304
   56GLOH    C2 8956   0.277   0.874   5.069 -0.5231 -0.7179 -0.0402
   56GLOH   H04 8957   0.379   0.915   5.066 -1.1133  0.7092 -2.5441
   56GLOH    O2 8958   0.274   0.805   5.197 -0.4158  0.1571 -0.0903
   56GLOH   H05 8959   0.181   0.780   5.212  0.0278 -0.3341  2.0461
   56GLOH    C3 8960   0.258   0.780   4.952 -0.1976  0.0555 -0.1826
   56GLOH   H06 8961   0.152   0.758   4.946 -0.0919 -0.7808  0.8899
   56GLOH   H07 8962   0.313   0.687   4.966  2.6219  1.5751 -0.5678
   56GLOH    O3 8963   0.302   0.842   4.827 -0.1645  0.9078  0.1469
   56GLOH   H01 8964   0.221   0.887   4.796 -0.8635 -0.1613  0.4098
   57GLOH   H03 8965   2.268   8.884   5.095 -1.2895  0.4869  2.8144
   57GLOH    O1 8966   2.216   8.802   5.084  0.1299 -0.0960  0.1898
   57GLOH    C1 8967   2.080   8.832   5.060  0.2266  0.2305 -0.6904
   57GLOH   H02 8968   2.057   8.827   4.954 -1.9137 -2.2982 -0.1648
   57GLOH   H08 8969   2.050   8.928   5.103 -0.4665 -0.2983  0.0177
   57GLOH    C2 8970   1.995   8.726   5.130 -0.6128 -0.2506  0.8614
   57GLOH   H04 8971   2.023   8.732   5.236  2.8097  0.9692 -0.0140
   57GLOH    O2 8972   1.856   8.762   5.109 -0.2645  0.2960  0.2011
   57GLOH   H05 8973   1.841   8.746   5.014  3.2833  0.1631 -0.4292
   57GLOH    C3 8974   2.019   8.586   5.072 -0.1240 -0.4511 -0.0947
   57GLOH   H06 8975   1.967   8.525   5.146 -0.7565 -1.4210 -1.3103
   57GLOH   H07 8976   2.120   8.547   5.078  0.3432  0.8006  0.1586
   57GLOH    O3 8977   1.966   8.570   4.937 -0.2021 -0.4472  0.1508
   57GLOH   H01 8978   2.003   8.486   4.903 -0.0247 -1.7283  3.3340
   58GLOH   H03 8979   7.218   4.828   4.821 -1.6505 -1.1355  0.1591
   58GLOH    O1 8980   7.189   4.854   4.731 -0.1442 -0.3172 -0.0926
   58GLOH    C1 8981   7.312   4.865   4.646 -0.4183 -0.2400 -0.3272
   58GLOH   H02 8982   7.360   4.768   4.642  0.5738  0.2696 -1.0860
   58GLOH   H08 8983   7.386   4.937   4.683 -1.5189  0.9541 -0.3981
   58GLOH    C2 8984   7.271   4.912   4.508  0.4345 -0.2196 -0.0054
   58GLOH   H04 8985   7.197   4.842   4.467  0.5001  0.7335 -1.7975
   58GLOH    O2 8986   7.207   5.039   4.521 -0.2245 -0.1173  0.5571
   58GLOH   H05 8987   7.152   5.040   4.601  0.7900 -0.6727  1.2578
   58GLOH    C3 8988   7.394   4.935   4.416  0.4254 -0.0909 -0.2012
   58GLOH   H06 8989   7.449   5.021   4.454  0.8487 -0.0093 -0.9705
   58GLOH   H07 8990   7.354   4.957   4.317  2.8056  0.7425 -1.0288
   58GLOH    O3 8991   7.484   4.821   4.409 -0.3380  0.1554 -0.2550
   58GLOH   H01 8992   7.541   4.817   4.330 -0.3305 -0.3839 -0.2251
   59GLOH   H03 8993   3.125   9.718   3.917  0.0790 -0.1378  1.4367
   59GLOH    O1 8994   3.035   9.725   3.953 -0.3633  0.5520  0.2213
   59GLOH    C1 8995   2.938   9.681   3.857  1.0845  0.1686  0.0117
   59GLOH   H02 8996   2.866   9.618   3.909 -0.5546  1.4177 -0.6880
   59GLOH   H08 8997   2.974   9.610   3.783 -1.4154  0.3049 -1.3549
   59GLOH    C2 8998   2.861   9.798   3.792  0.2299 -0.0190  0.0361
   59GLOH   H04 8999   2.778   9.833   3.856 -1.3414  0.1814 -2.0596
   59GLOH    O2 9000   2.942   9.910   3.745  0.2372  0.2056 -0.6530
   59GLOH   H05 9001   2.926   9.979   3.813  0.7788 -1.7895  1.5738
   59GLOH    C3 9002   2.776   9.756   3.675  0.6255  0.4810 -0.4223
   59GLOH   H06 9003   2.841   9.715   3.598 -0.1827  2.2821 -2.1154
   59GLOH   H07 9004   2.727   9.845   3.635  1.7881  1.0556 -0.5959
   59GLOH    O3 9005   2.669   9.657   3.701  0.0089  0.6413 -0.4058
   59GLOH   H01 9006   2.674   9.595   3.625  0.3262 -0.9963  0.9312
   60GLOH   H03 9007   1.913   4.148   0.748 -1.1192  1.2315  1.9064
   60GLOH    O1 9008   1.927   4.060   0.788 -0.0723  0.3053 -0.4156
   60GLOH    C1 9009   1.801   3.987   0.774  0.9908 -0.8855  0.1563
   60GLOH   H02 9010   1.812   3.900   0.839  1.0689 -0.6863  0.4118
   60GLOH   H08 9011   1.783   3.956   0.671  0.8514 -1.1720  0.2693
   60GLOH    C2 9012   1.677   4.064   0.819  0.1517  0.5942 -0.7217
   60GLOH   H04 9013   1.686   4.083   0.927  1.5272 -2.2073 -0.3229
   60GLOH    O2 9014   1.640   4.185   0.756  0.0289 -0.1435 -0.4603
   60GLOH   H05 9015   1.720   4.240   0.747  0.3832 -0.3925  0.9919
   60GLOH    C3 9016   1.553   3.963   0.814 -0.5365  1.0840 -0.2132
   60GLOH   H06 9017   1.542   3.935   0.710 -0.3248  0.5295 -0.0878
   60GLOH   H07 9018   1.461   4.011   0.848 -0.4703  0.4142  0.9303
   60GLOH    O3 9019   1.568   3.842   0.891  0.0246  0.2652 -0.1130
   60GLOH   H01 9020   1.606   3.779   0.827 -1.7322  0.1605 -1.0982
   61GLOH   H03 9021   2.775   1.063   3.224 -0.5081  0.6264  0.0541
   61GLOH    O1 9022   2.696   1.024   3.180 -0.2313 -0.0410  0.1423
   61GLOH    C1 9023   2.741   0.951   3.064  0.2552 -0.5441  0.0351
   61GLOH   H02 9024   2.672   0.871   3.040  1.2708 -0.8551 -2.0179
   61GLOH   H08 9025   2.834   0.897   3.082  1.1228  1.2240  0.9821
   61GLOH    C2 9026   2.766   1.037   2.934  0.4408  0.2683  0.1157
   61GLOH   H04 9027   2.792   1.140   2.962 -3.0102  1.2475 -0.0542
   61GLOH    O2 9028   2.862   0.975   2.848 -0.1012  0.2172  0.6961
   61GLOH   H05 9029   2.946   0.979   2.898 -1.5196  0.3590  3.1584
   61GLOH    C3 9030   2.633   1.059   2.862 -0.5928 -0.5719  0.0008
   61GLOH   H06 9031   2.588   0.961   2.847  2.4959 -2.4776  2.5405
   61GLOH   H07 9032   2.652   1.091   2.759  0.0434 -3.3972 -0.8024
   61GLOH    O3 9033   2.548   1.151   2.928  0.3522 -0.3239  0.2924
   61GLOH   H01 9034   2.504   1.098   2.997 -0.9696  1.5093  0.9347
   62GLOH   H03 9035   5.795   9.725   2.321 -0.4963  1.2031  0.4364
   62GLOH    O1 9036   5.735   9.747   2.247  0.4935  0.5764 -0.5752
   62GLOH    C1 9037   5.680   9.880   2.242  0.6578  0.2168 -0.1999
   62GLOH   H02 9038   5.636   9.900   2.145  0.4414  0.5422 -0.0357
   62GLOH   H08 9039   5.755   9.953   2.274 -0.5858  0.0943  3.2744
   62GLOH    C2 9040   5.559   9.895   2.342  0.5752 -0.6089 -0.0481
   62GLOH   H04 9041   5.597   9.856   2.438 -2.8339  0.1520  1.6582
   62GLOH    O2 9042   5.517  10.031   2.352  0.0217  0.0350  0.5723
   62GLOH   H05 9043   5.511  10.067   2.442  0.6561 -0.5055  0.8368
   62GLOH    C3 9044   5.443   9.797   2.309 -0.1017 -0.8639  0.8027
   62GLOH   H06 9045   5.376   9.836   2.232  1.8712 -2.0078 -1.5542
   62GLOH   H07 9046   5.390   9.799   2.404  1.4660  2.9242  1.6958
   62GLOH    O3 9047   5.479   9.662   2.274 -0.2656 -0.2717  0.3387
   62GLOH   H01 9048   5.564   9.644   2.228 -1.0314 -2.7313 -0.2221
   63GLOH   H03 9049   6.822   7.921   4.059 -1.6462  2.3064  0.0681
   63GLOH    O1 9050   6.811   7.908   4.155 -0.3736 -0.1187 -0.0756
   63GLOH    C1 9051   6.938   7.894   4.220 -0.3054  0.5247 -0.3336
   63GLOH   H02 9052   6.930   7.944   4.316 -0.3928  2.2941 -1.2386
   63GLOH   H08 9053   7.020   7.950   4.177 -0.4265  1.1371  0.2236
   63GLOH    C2 9054   6.981   7.751   4.249 -0.1638  0.7101 -0.2302
   63GLOH   H04 9055   6.998   7.702   4.151  1.3583 -1.5939  1.1186
   63GLOH    O2 9056   7.114   7.756   4.311 -0.2084 -0.3281 -0.1567
   63GLOH   H05 9057   7.138   7.662   4.319 -2.3695 -0.9032 -0.2993
   63GLOH    C3 9058   6.881   7.672   4.337  1.1519 -0.6106 -0.3358
   63GLOH   H06 9059   6.780   7.690   4.300  0.7171 -1.1539  0.5751
   63GLOH   H07 9060   6.875   7.711   4.438 -1.9780  1.4128 -1.1994
   63GLOH    O3 9061   6.903   7.531   4.342 -0.3692  0.4856 -0.0962
   63GLOH   H01 9062   6.993   7.522   4.378 -0.0788 -0.1909 -1.0098
   64GLOH   H03 9063   9.633   3.095   4.895 -1.7161  0.6411 -0.4967
   64GLOH    O1 9064   9.633   3.049   4.809  0.1093 -0.4307  0.0314
   64GLOH    C1 9065   9.611   2.909   4.834  0.0182  0.0465  0.2051
   64GLOH   H02 9066   9.516   2.904   4.887 -0.0839  3.7376  0.4738
   64GLOH   H08 9067   9.690   2.862   4.894 -0.7586 -2.4610 -0.6558
   64GLOH    C2 9068   9.612   2.827   4.700 -0.5002 -0.5076 -0.2343
   64GLOH   H04 9069   9.704   2.846   4.642 -0.2652  0.3042  0.3891
   64GLOH    O2 9070   9.592   2.693   4.720 -0.5389 -0.0750  0.1326
   64GLOH   H05 9071   9.601   2.649   4.633 -1.4244 -0.6908  0.3411
   64GLOH    C3 9072   9.489   2.880   4.617 -0.0501  0.6809  0.0854
   64GLOH   H06 9073   9.484   2.989   4.625  2.1454  0.8799 -0.9881
   64GLOH   H07 9074   9.393   2.852   4.661 -0.0623  0.7454  0.1002
   64GLOH    O3 9075   9.492   2.843   4.480 -0.0625 -0.3583 -0.4564
   64GLOH   H01 9076   9.531   2.755   4.469 -0.2530 -0.5448  0.3437
   65GLOH   H03 9077   3.302   9.983   2.600  0.7070 -0.4382 -0.1649
   65GLOH    O1 9078   3.246   9.976   2.520  0.3686 -0.1809  0.0473
   65GLOH    C1 9079   3.252   9.841   2.472 -0.0520  0.0738 -0.0155
   65GLOH   H02 9080   3.221   9.843   2.368  0.9029 -1.2172 -0.3407
   65GLOH   H08 9081   3.180   9.774   2.518  0.5940 -1.1798 -0.8033
   65GLOH    C2 9082   3.393   9.781   2.472  0.2354  0.4742  0.4546
   65GLOH   H04 9083   3.459   9.849   2.417 -1.4646  0.9891 -0.9743
   65GLOH    O2 9084   3.451   9.766   2.607 -0.4321  0.0365  0.4744
   65GLOH   H05 9085   3.491   9.678   2.599  0.6196  0.6705 -1.3456
   65GLOH    C3 9086   3.400   9.641   2.399  0.3914 -0.4649  0.2179
   65GLOH   H06 9087   3.506   9.621   2.386  1.2388  2.0630  2.7287
   65GLOH   H07 9088   3.356   9.650   2.299 -2.0048  1.2936  1.3684
   65GLOH    O3 9089   3.323   9.546   2.477  0.0943  0.0460  0.0788
   65GLOH   H01 9090   3.233   9.547   2.440  1.5609  0.1422 -3.7685
   66GLOH   H03 9091   5.443   1.351   1.419  0.6089 -0.5793 -2.9987
   66GLOH    O1 9092   5.523   1.363   1.473 -0.6626  0.0849 -1.2000
   66GLOH    C1 9093   5.626   1.268   1.444 -0.0742  0.4793 -0.3262
   66GLOH   H02 9094   5.720   1.319   1.422  1.4337 -0.0550  4.1501
   66GLOH   H08 9095   5.604   1.191   1.370  0.3555 -1.1756  1.2011
   66GLOH    C2 9096   5.649   1.181   1.569  0.0949 -1.0319 -0.4220
   66GLOH   H04 9097   5.550   1.144   1.599  0.5068 -1.9421 -0.1875
   66GLOH    O2 9098   5.737   1.077   1.548 -0.1188  0.0152  0.0463
   66GLOH   H05 9099   5.801   1.102   1.480  0.1724 -3.1666 -0.9400
   66GLOH    C3 9100   5.685   1.266   1.694  0.3130 -0.0735 -0.6454
   66GLOH   H06 9101   5.794   1.270   1.696  0.5422 -2.2189  7.0812
   66GLOH   H07 9102   5.662   1.204   1.781  0.6782  0.2764 -0.2968
   66GLOH    O3 9103   5.620   1.396   1.701  0.0081  0.1284  0.3466
   66GLOH   H01 9104   5.567   1.390   1.620  0.1186  0.3585  0.2550
   67GLOH   H03 9105   5.852   7.080   3.181 -0.6344 -1.9862  0.9670
   67GLOH    O1 9106   5.867   7.009   3.115  0.2375 -0.3738 -0.6182
   67GLOH    C1 9107   5.833   7.065   2.979 -0.1187  0.0068  0.1490
   67GLOH   H02 9108   5.726   7.086   2.978 -0.0467  0.3664 -0.3063
   67GLOH   H08 9109   5.860   6.998   2.897 -0.8646 -0.8924  0.6351
   67GLOH    C2 9110   5.891   7.203   2.934  0.3164 -0.8046  0.0998
   67GLOH   H04 9111   5.811   7.245   2.872 -0.3459 -1.0533  0.7748
   67GLOH    O2 9112   5.920   7.289   3.048 -0.3651 -0.0520 -0.1273
   67GLOH   H05 9113   6.001   7.254   3.089  0.7352 -1.3205 -3.2263
   67GLOH    C3 9114   6.020   7.174   2.855  0.7177 -0.2440 -0.0763
   67GLOH   H06 9115   6.087   7.121   2.923  0.7224 -1.7015 -1.1928
   67GLOH   H07 9116   6.064   7.273   2.843 -1.4943  0.7577 -0.1756
   67GLOH    O3 9117   6.009   7.103   2.734  0.0301 -0.1408 -0.0008
   67GLOH   H01 9118   5.928   7.120   2.683 -1.3744  1.1887  2.5967
   68GLOH   H03 9119   0.733   4.888   0.714 -0.5634 -0.7702 -0.9687
   68GLOH    O1 9120   0.821   4.911   0.679 -0.3771  0.4755  0.2443
   68GLOH    C1 9121   0.809   5.021   0.585 -0.4028 -0.6770  0.6857
   68GLOH   H02 9122   0.755   5.101   0.636  0.3358 -0.2883  0.8576
   68GLOH   H08 9123   0.743   4.991   0.504 -0.3164  0.8304  0.0532
   68GLOH    C2 9124   0.946   5.077   0.536  0.4292  0.4918 -0.0257
   68GLOH   H04 9125   1.006   4.985   0.524 -1.2207 -0.5650 -0.3317
   68GLOH    O2 9126   0.933   5.150   0.417  0.3552 -0.1053  0.0742
   68GLOH   H05 9127   1.020   5.155   0.373 -0.2629 -0.3029 -1.1709
   68GLOH    C3 9128   1.003   5.161   0.657 -0.1964 -0.0307  0.7295
   68GLOH   H06 9129   0.928   5.240   0.658 -0.6481 -0.4624  1.2857
   68GLOH   H07 9130   1.093   5.216   0.629 -0.4370  0.3142  0.6333
   68GLOH    O3 9131   1.015   5.083   0.776  0.2266  0.1540 -0.1708
   68GLOH   H01 9132   0.953   5.009   0.767 -0.2411  0.7038 -1.5716
   69GLOH   H03 9133   3.919   3.501   4.421 -0.9420 -0.3809 -1.9798
   69GLOH    O1 9134   3.845   3.550   4.461  0.2170  0.1086 -0.3755
   69GLOH    C1 9135   3.736   3.552   4.371  0.0412  0.4667  0.2107
   69GLOH   H02 9136   3.778   3.579   4.274 -0.1140  0.0542  0.0276
   69GLOH   H08 9137   3.662   3.628   4.396  0.5859  1.1999 -0.3816
   69GLOH    C2 9138   3.657   3.426   4.341  0.0975  0.1993  0.2552
   69GLOH   H04 9139   3.611   3.389   4.433  0.2020  0.7430  0.5336
   69GLOH    O2 9140   3.547   3.441   4.247 -0.1059  0.1188  0.2846
   69GLOH   H05 9141   3.580   3.479   4.163  0.7706 -0.3517  0.4102
   69GLOH    C3 9142   3.740   3.311   4.287  0.0194  0.0828 -0.5361
   69GLOH   H06 9143   3.784   3.342   4.192  0.8825  0.9021  0.1330
   69GLOH   H07 9144   3.669   3.230   4.269  0.8416 -1.3066  2.2500
   69GLOH    O3 9145   3.851   3.269   4.375  0.2247  0.2812 -0.1333
   69GLOH   H01 9146   3.927   3.236   4.324  1.9232  1.5396  1.4580
   70GLOH   H03 9147   3.362   3.279   0.911 -0.0648  1.5590  0.2253
   70GLOH    O1 9148   3.457   3.259   0.907 -0.3975 -0.0541 -0.1154
   70GLOH    C1 9149   3.510   3.295   0.776 -0.7012  0.7185 -0.0230
   70GLOH   H02 9150   3.492   3.401   0.758  0.8188  1.2664  1.5916
   70GLOH   H08 9151   3.469   3.233   0.696 -1.8302  0.2930  0.8623
   70GLOH    C2 9152   3.666   3.274   0.773  0.1448  0.2473 -0.0938
   70GLOH   H04 9153   3.706   3.326   0.861 -0.5390 -1.9170  1.5328
   70GLOH    O2 9154   3.703   3.134   0.794  0.0851  0.1809 -0.2068
   70GLOH   H05 9155   3.799   3.122   0.781  0.1887  0.0148  0.6863
   70GLOH    C3 9156   3.723   3.343   0.649 -0.0889 -0.7996  0.2114
   70GLOH   H06 9157   3.666   3.300   0.567  1.1787 -1.4353 -0.3475
   70GLOH   H07 9158   3.829   3.323   0.634  0.7817  0.8813  3.4190
   70GLOH    O3 9159   3.710   3.481   0.648  0.3149 -0.1483 -0.1454
   70GLOH   H01 9160   3.740   3.514   0.735 -1.5010 -0.0288  0.4471
   71GLOH   H03 9161   4.705   7.234   4.101  0.1581 -0.0351 -0.3571
   71GLOH    O1 9162   4.642   7.163   4.124 -0.1427  0.3110 -0.1127
   71GLOH    C1 9163   4.691   7.043   4.069 -0.0700  0.5171  0.2418
   71GLOH   H02 9164   4.752   6.992   4.143  0.1987  0.8713  0.2668
   71GLOH   H08 9165   4.764   7.068   3.991 -1.1990 -0.0265 -1.0204
   71GLOH    C2 9166   4.583   6.945   4.016  0.2040 -0.7624 -0.7610
   71GLOH   H04 9167   4.531   6.993   3.932  1.7531  0.8737 -0.8098
   71GLOH    O2 9168   4.639   6.824   3.965 -0.6302 -0.1892 -0.6079
   71GLOH   H05 9169   4.620   6.757   4.033 -1.3321 -0.5772 -1.1880
   71GLOH    C3 9170   4.470   6.937   4.115  0.1360  0.3803 -0.4685
   71GLOH   H06 9171   4.430   7.036   4.138  0.0874 -0.0509  1.4593
   71GLOH   H07 9172   4.502   6.899   4.212 -2.8335  1.3158  0.9474
   71GLOH    O3 9173   4.364   6.861   4.065  0.1451  0.7202  0.1208
   71GLOH   H01 9174   4.289   6.920   4.048 -0.5879  0.0091  0.7995
   72GLOH   H03 9175   9.988   1.771   2.023  0.7765 -0.3104 -1.2535
   72GLOH    O1 9176   9.970   1.682   2.056  0.1191  0.0857 -0.5358
   72GLOH    C1 9177   9.862   1.637   1.971 -0.3088 -0.7726  0.0799
   72GLOH   H02 9178   9.898   1.633   1.868 -1.1708  1.6180 -0.3486
   72GLOH   H08 9179   9.778   1.706   1.980  0.0079 -0.2772 -0.7076
   72GLOH    C2 9180   9.802   1.501   2.017  0.7345  0.9208  0.0534
   72GLOH   H04 9181   9.734   1.504   2.104 -0.8868  0.1415 -1.1743
   72GLOH    O2 9182   9.735   1.437   1.907  0.0345 -0.7174 -0.1604
   72GLOH   H05 9183   9.791   1.433   1.827 -2.5033  1.5716 -2.1589
   72GLOH    C3 9184   9.902   1.401   2.081 -0.1577  0.6268  0.4596
   72GLOH   H06 9185   9.964   1.372   1.997 -0.0781  1.1891  0.3221
   72GLOH   H07 9186   9.869   1.306   2.121  1.1349  0.8996  2.2361
   72GLOH    O3 9187   9.978   1.469   2.185  0.4666 -0.0044  0.5682
   72GLOH   H01 9188   9.970   1.564   2.165 -0.9869 -0.3102 -0.3628
   73GLOH   H03 9189   1.631   8.929   4.661 -0.4278  2.1213  1.6400
   73GLOH    O1 9190   1.715   8.892   4.694 -0.5339 -0.1107 -0.4414
   73GLOH    C1 9191   1.793   8.851   4.580  0.7891  0.2569 -0.2494
   73GLOH   H02 9192   1.897   8.864   4.610  0.1407  1.8963  1.3667
   73GLOH   H08 9193   1.771   8.910   4.490  1.0826 -1.2478 -1.3205
   73GLOH    C2 9194   1.772   8.699   4.550 -0.0966 -0.2376  0.3123
   73GLOH   H04 9195   1.788   8.682   4.442  1.5680  0.5024  0.4436
   73GLOH    O2 9196   1.870   8.620   4.621  0.2104  0.8778  0.3278
   73GLOH   H05 9197   1.825   8.543   4.661 -1.2767  0.7998 -1.4016
   73GLOH    C3 9198   1.628   8.647   4.578  0.1948  0.2498  0.2693
   73GLOH   H06 9199   1.598   8.679   4.678 -0.9455 -0.0221  0.0166
   73GLOH   H07 9200   1.608   8.541   4.568  0.3977  0.2004  0.3746
   73GLOH    O3 9201   1.552   8.716   4.480 -0.2383 -0.1130 -0.5421
   73GLOH   H01 9202   1.590   8.692   4.394  1.3660  1.1553 -0.2171
   74GLOH   H03 9203   3.446   4.229   4.186  0.3127 -0.8023 -0.0738
   74GLOH    O1 9204   3.402   4.148   4.155 -0.9312 -0.1385 -0.0699
   74GLOH    C1 9205   3.333   4.097   4.275 -0.4321  0.3075  0.1940
   74GLOH   H02 9206   3.236   4.055   4.251  0.9080 -1.5029 -2.3319
   74GLOH   H08 9207   3.326   4.189   4.333  2.2847  1.4526 -1.1516
   74GLOH    C2 9208   3.402   3.990   4.365  1.1593 -0.5303 -0.1386
   74GLOH   H04 9209   3.496   4.034   4.400  0.0262  2.4115 -0.7084
   74GLOH    O2 9210   3.324   3.958   4.482 -0.0053 -0.1191 -0.2209
   74GLOH   H05 9211   3.249   3.898   4.464  0.2895 -0.9639  1.2852
   74GLOH    C3 9212   3.443   3.855   4.300 -0.7739  0.6476  0.9191
   74GLOH   H06 9213   3.364   3.822   4.232  1.5301 -0.1546 -1.4184
   74GLOH   H07 9214   3.460   3.775   4.372 -1.9237 -0.4165  0.0296
   74GLOH    O3 9215   3.565   3.867   4.218  0.5183  0.3203 -0.5516
   74GLOH   H01 9216   3.560   3.792   4.156  2.2149  0.5127 -0.9549
   75GLOH   H03 9217   0.691   9.667   1.758 -0.1073  0.4642  0.1909
   75GLOH    O1 9218   0.746   9.623   1.826 -0.5659 -0.4470 -0.0175
   75GLOH    C1 9219   0.765   9.693   1.948 -0.4288 -0.2920 -0.4772
   75GLOH   H02 9220   0.667   9.689   1.994  0.2048  0.5715  0.9702
   75GLOH   H08 9221   0.793   9.798   1.934  0.0513 -0.3794 -0.1874
   75GLOH    C2 9222   0.866   9.624   2.046 -0.3273 -0.5752  0.8227
   75GLOH   H04 9223   0.968   9.614   2.004 -0.2417 -1.8086  1.2808
   75GLOH    O2 9224   0.875   9.709   2.161  0.4988  0.3231  0.5784
   75GLOH   H05 9225   0.930   9.663   2.227  1.6237  0.1921 -0.4239
   75GLOH    C3 9226   0.827   9.480   2.071  0.2505  0.3113 -0.3574
   75GLOH   H06 9227   0.913   9.438   2.124 -0.5598 -1.5106 -0.4431
   75GLOH   H07 9228   0.838   9.432   1.974  0.4773  0.2684 -0.3110
   75GLOH    O3 9229   0.697   9.449   2.128  0.1470  0.1051  0.1288
   75GLOH   H01 9230   0.621   9.471   2.071 -0.6562  0.8453  1.4559
   76GLOH   H03 9231   0.590   9.204   3.497 -1.7095  0.5973 -0.1460
   76GLOH    O1 9232   0.591   9.173   3.589 -0.1177  0.5993 -0.1541
   76GLOH    C1 9233   0.450   9.181   3.637 -0.4469 -0.3048  0.4349
   76GLOH   H02 9234   0.390   9.110   3.580 -1.6778  1.8732 -1.0386
   76GLOH   H08 9235   0.414   9.280   3.611  2.6744  0.7261 -0.2224
   76GLOH    C2 9236   0.452   9.168   3.788 -0.1074  0.8200 -0.2490
   76GLOH   H04 9237   0.533   9.235   3.821  1.2753 -0.2940 -1.2652
   76GLOH    O2 9238   0.334   9.208   3.858 -0.2728 -0.1883 -0.2431
   76GLOH   H05 9239   0.336   9.182   3.952 -1.6689 -1.1646 -0.4552
   76GLOH    C3 9240   0.490   9.027   3.836  0.8519  0.4404  0.1932
   76GLOH   H06 9241   0.436   8.951   3.780  0.3826 -0.4606  1.8578
   76GLOH   H07 9242   0.472   9.003   3.941 -1.0567 -1.3935 -0.5099
   76GLOH    O3 9243   0.626   9.001   3.799 -0.4368  0.3386  0.6541
   76GLOH   H01 9244   0.650   9.051   3.719  2.2514 -2.1749 -0.2105
   77GLOH   H03 9245   7.996   6.517   5.415  0.1144 -0.3319  0.5912
   77GLOH    O1 9246   8.043   6.508   5.330  0.1537  0.0028  0.5771
   77GLOH    C1 9247   7.950   6.528   5.226  0.0586  0.6839 -1.0537
   77GLOH   H02 9248   7.873   6.596   5.263  0.6418  2.2391 -2.6500
   77GLOH   H08 9249   7.898   6.435   5.207  0.4372  0.3309 -0.3710
   77GLOH    C2 9250   8.021   6.575   5.099  0.8614 -0.4879 -0.2112
   77GLOH   H04 9251   8.124   6.538   5.088  1.4674  0.9927  0.3088
   77GLOH    O2 9252   7.944   6.528   4.981  0.2416  0.6206 -0.1351
   77GLOH   H05 9253   7.949   6.431   4.990  1.3073  0.6152 -0.6131
   77GLOH    C3 9254   8.025   6.726   5.102 -0.3523 -0.5339 -0.3950
   77GLOH   H06 9255   7.924   6.765   5.120  0.4671  0.9000  1.2366
   77GLOH   H07 9256   8.060   6.761   5.005 -2.0464  0.3564 -0.7050
   77GLOH    O3 9257   8.116   6.778   5.200 -0.4087  0.0233 -0.2260
   77GLOH   H01 9258   8.183   6.709   5.221 -0.6113  0.6244  2.5309
   78GLOH   H03 9259   8.224   9.064   0.884 -0.2223 -0.6600 -1.0986
   78GLOH    O1 9260   8.285   8.990   0.901  0.1323 -0.1976 -0.3071
   78GLOH    C1 9261   8.409   9.044   0.913 -0.0950 -0.3266 -0.1264
   78GLOH   H02 9262   8.420   9.149   0.940  3.6241 -0.1976 -1.8561
   78GLOH   H08 9263   8.465   9.039   0.820  1.2321 -1.1214  0.6978
   78GLOH    C2 9264   8.486   8.987   1.031 -0.7840  0.5201  0.9134
   78GLOH   H04 9265   8.483   8.878   1.027  2.6076  0.4602 -1.6541
   78GLOH    O2 9266   8.619   9.017   1.016  0.3863 -0.5176 -0.0417
   78GLOH   H05 9267   8.653   9.086   1.076 -1.7956  0.2152  0.3943
   78GLOH    C3 9268   8.415   9.036   1.163  0.1375 -0.1544  0.3898
   78GLOH   H06 9269   8.308   9.016   1.155 -0.5543  3.4535 -0.5197
   78GLOH   H07 9270   8.428   9.144   1.170 -0.3195 -0.1497  1.2192
   78GLOH    O3 9271   8.469   8.965   1.278 -0.0447  0.0873  0.3062
   78GLOH   H01 9272   8.405   8.903   1.318  0.4242  0.2989  1.3842
   79GLOH   H03 9273   4.310   3.374   4.842  0.4247  1.2288  0.8380
   79GLOH    O1 9274   4.217   3.363   4.869  0.3029 -0.0970 -0.0729
   79GLOH    C1 9275   4.125   3.417   4.771  0.4913 -0.0184 -0.0350
   79GLOH   H02 9276   4.036   3.354   4.775  0.3200  0.2784  1.0214
   79GLOH   H08 9277   4.171   3.397   4.675  1.2904 -1.3892  0.6158
   79GLOH    C2 9278   4.090   3.567   4.787  0.1272  0.1592 -0.4083
   79GLOH   H04 9279   4.072   3.619   4.692 -4.5592  1.5511  1.1155
   79GLOH    O2 9280   3.969   3.583   4.863 -0.1675  0.0762  0.0433
   79GLOH   H05 9281   3.888   3.548   4.823  0.7586  1.6412 -3.3492
   79GLOH    C3 9282   4.208   3.642   4.846  0.2677  0.1187 -0.2599
   79GLOH   H06 9283   4.297   3.617   4.789 -1.2164  0.4302 -2.7769
   79GLOH   H07 9284   4.227   3.600   4.945 -1.5350  1.1415  0.5543
   79GLOH    O3 9285   4.191   3.785   4.852  0.1094 -0.2427 -0.5759
   79GLOH   H01 9286   4.228   3.815   4.767  0.5279  1.8155  0.3009
   80GLOH   H03 9287   5.366   8.945   4.619 -1.1890  0.0772 -0.4079
   80GLOH    O1 9288   5.316   8.948   4.703  0.1625 -0.3355  0.4127
   80GLOH    C1 9289   5.395   9.049   4.767  0.1038  0.5659  0.1836
   80GLOH   H02 9290   5.500   9.023   4.780  1.3888  3.7349 -3.1730
   80GLOH   H08 9291   5.356   9.075   4.865 -1.6079  2.3402 -0.9399
   80GLOH    C2 9292   5.398   9.185   4.692  0.0872  0.4721 -0.1400
   80GLOH   H04 9293   5.444   9.266   4.751  0.9687 -0.7079  0.8113
   80GLOH    O2 9294   5.476   9.174   4.573  0.3067  0.6228  0.2828
   80GLOH   H05 9295   5.478   9.080   4.550 -3.8746  0.5487 -0.2316
   80GLOH    C3 9296   5.254   9.236   4.662  0.6348  0.3387  0.1860
   80GLOH   H06 9297   5.221   9.180   4.575  1.6112  0.1688 -0.0748
   80GLOH   H07 9298   5.254   9.342   4.638 -1.9903  0.6265  1.1971
   80GLOH    O3 9299   5.162   9.229   4.775  0.5893 -0.1345 -0.1808
   80GLOH   H01 9300   5.099   9.161   4.745  0.9390  0.5409 -2.4800
   81GLOH   H03 9301   4.580   2.022   3.311  1.0646  1.3176 -0.9538
   81GLOH    O1 9302   4.629   1.941   3.286 -0.1786  0.0702  0.5264
   81GLOH    C1 9303   4.544   1.827   3.296 -0.1505 -0.3438  0.2766
   81GLOH   H02 9304   4.598   1.750   3.241 -3.4134 -2.1354 -0.5527
   81GLOH   H08 9305   4.451   1.835   3.239 -0.3094 -0.1035  0.5697
   81GLOH    C2 9306   4.511   1.798   3.441  0.6694 -0.3306 -0.5480
   81GLOH   H04 9307   4.445   1.710   3.442  0.2043 -0.0085 -1.7518
   81GLOH    O2 9308   4.631   1.777   3.522 -0.0896  0.6054 -0.4138
   81GLOH   H05 9309   4.644   1.683   3.541  1.5212  0.7011 -1.0060
   81GLOH    C3 9310   4.435   1.914   3.505 -0.5823 -0.0176 -0.0911
   81GLOH   H06 9311   4.500   2.002   3.504  1.3685 -1.4194 -0.0500
   81GLOH   H07 9312   4.417   1.891   3.610  2.4454  1.7994  0.9211
   81GLOH    O3 9313   4.313   1.934   3.437 -0.2735  0.8461  0.7833
   81GLOH   H01 9314   4.258   1.854   3.442 -2.1713  2.0865  0.1237
   82GLOH   H03 9315   4.761   1.248   1.105 -1.6859  0.8000  0.0637
   82GLOH    O1 9316   4.794   1.323   1.051  0.4922  0.2860  0.6255
   82GLOH    C1 9317   4.773   1.440   1.137  0.0917  0.2518 -0.0108
   82GLOH   H02 9318   4.817   1.413   1.233 -0.0281 -0.0294 -0.0333
   82GLOH   H08 9319   4.668   1.452   1.164  0.2962 -1.0034  1.3934
   82GLOH    C2 9320   4.838   1.563   1.075  0.7063  1.0135 -0.0633
   82GLOH   H04 9321   4.779   1.591   0.987 -0.7213 -3.4218 -0.6031
   82GLOH    O2 9322   4.836   1.675   1.168  0.4299  0.0308  0.4624
   82GLOH   H05 9323   4.892   1.749   1.139 -0.5320  0.0815 -1.3326
   82GLOH    C3 9324   4.975   1.533   1.012 -0.2607 -0.2448  0.0087
   82GLOH   H06 9325   5.002   1.428   1.010  3.5926  0.6793 -0.4749
   82GLOH   H07 9326   5.056   1.583   1.066 -0.5717 -0.6218  0.8379
   82GLOH    O3 9327   4.982   1.590   0.877 -0.0176 -0.0274  0.0214
   82GLOH   H01 9328   4.949   1.682   0.880  3.0316  1.1131  0.8969
   83GLOH   H03 9329   3.443   5.242   3.239  0.8931  0.6887  0.4674
   83GLOH    O1 9330   3.439   5.306   3.165  0.2506  0.1800  0.0501
   83GLOH    C1 9331   3.435   5.434   3.238 -0.5527  0.1169  0.4346
   83GLOH   H02 9332   3.527   5.453   3.293  0.1776 -1.1758 -0.3197
   83GLOH   H08 9333   3.365   5.426   3.321 -1.5230  2.2929 -0.1333
   83GLOH    C2 9334   3.393   5.547   3.143  0.0065 -0.1594  0.0488
   83GLOH   H04 9335   3.293   5.509   3.115  0.5244 -2.0433  0.7158
   83GLOH    O2 9336   3.401   5.678   3.211  0.0838  0.2900  0.3121
   83GLOH   H05 9337   3.333   5.735   3.172 -0.1398  1.8936  2.9193
   83GLOH    C3 9338   3.486   5.546   3.022  0.0203  0.5804  0.1644
   83GLOH   H06 9339   3.586   5.572   3.057  1.2024  3.3979 -4.8601
   83GLOH   H07 9340   3.467   5.635   2.962  0.7131  1.1170  0.7233
   83GLOH    O3 9341   3.484   5.427   2.947 -0.0464  0.1874  0.5768
   83GLOH   H01 9342   3.490   5.352   3.009 -0.5207 -1.9661 -1.8907
   84GLOH   H03 9343   8.509   5.680   0.129  0.3048  0.5922  0.2332
   84GLOH    O1 9344   8.534   5.591   0.158 -0.3966  0.0997 -0.6476
   84GLOH    C1 9345   8.448   5.489   0.122 -0.2192  0.1408 -0.1091
   84GLOH   H02 9346   8.345   5.523   0.127  0.5987  2.8363 -0.4765
   84GLOH   H08 9347   8.466   5.400   0.183 -0.5194 -1.5082 -2.3666
   84GLOH    C2 9348   8.471   5.439  -0.018 -0.1353  0.0387  0.2073
   84GLOH   H04 9349   8.388   5.369  -0.035 -0.9160  1.0298 -0.1165
   84GLOH    O2 9350   8.461   5.554  -0.105 -0.2777  0.6410  0.0975
   84GLOH   H05 9351   8.381   5.544  -0.160  0.1809 -1.0695 -0.2894
   84GLOH    C3 9352   8.605   5.361  -0.034  0.0011 -0.0632  0.0317
   84GLOH   H06 9353   8.698   5.418  -0.029 -0.5795  0.8581  0.4155
   84GLOH   H07 9354   8.599   5.337  -0.140  1.0586  0.6669 -0.2026
   84GLOH    O3 9355   8.612   5.243   0.053 -0.2037  0.2283  0.2264
   84GLOH   H01 9356   8.521   5.207   0.052  0.0123 -0.3770  1.3254
   85GLOH   H03 9357   4.859   1.759   4.966 -1.2069 -1.4675  0.1086
   85GLOH    O1 9358   4.911   1.720   5.038  0.1387 -0.1996 -0.1444
   85GLOH    C1 9359   4.952   1.805   5.143 -0.7227 -0.4452  0.1339
   85GLOH   H02 9360   4.860   1.824   5.199  0.6909  1.1530  1.9930
   85GLOH   H08 9361   4.985   1.903   5.108 -0.1797 -1.2959 -1.7558
   85GLOH    C2 9362   5.068   1.746   5.226 -0.0237  0.6919  1.1308
   85GLOH   H04 9363   5.157   1.727   5.165 -1.2838 -1.7262 -0.0226
   85GLOH    O2 9364   5.097   1.834   5.332 -0.9507 -0.1087  0.2359
   85GLOH   H05 9365   5.167   1.794   5.385 -2.2787  0.8693  2.8043
   85GLOH    C3 9366   5.025   1.610   5.285  0.1614  0.3700 -0.4750
   85GLOH   H06 9367   4.946   1.629   5.358 -0.9515 -2.6307 -0.8413
   85GLOH   H07 9368   5.110   1.560   5.333  0.0745 -0.6971 -1.4148
   85GLOH    O3 9369   4.971   1.533   5.181 -0.1275 -0.7797  0.5156
   85GLOH   H01 9370   4.922   1.584   5.114  1.6834  0.9088  0.4196
   86GLOH   H03 9371   9.802   0.934   3.763 -0.4058  1.5466 -0.0792
   86GLOH    O1 9372   9.712   0.949   3.728 -0.5604  0.2924 -0.2346
   86GLOH    C1 9373   9.702   0.891   3.596 -0.3794 -0.2682  0.3171
   86GLOH   H02 9374   9.633   0.946   3.532  0.8574  0.7986 -0.1165
   86GLOH   H08 9375   9.659   0.791   3.603  0.6450 -0.8056 -0.9250
   86GLOH    C2 9376   9.846   0.882   3.543 -0.3358 -0.7432  0.1245
   86GLOH   H04 9377   9.893   0.981   3.540 -1.4006 -0.2670 -2.3213
   86GLOH    O2 9378   9.915   0.785   3.618  0.8852 -0.7720 -0.1614
   86GLOH   H05 9379   9.941   0.820   3.704 -1.9872  2.3651 -0.4734
   86GLOH    C3 9380   9.834   0.845   3.390 -0.5872 -0.0246 -0.3543
   86GLOH   H06 9381   9.775   0.754   3.380 -0.0973 -0.3678 -0.1506
   86GLOH   H07 9382   9.933   0.828   3.348 -0.6713 -0.1810 -0.4901
   86GLOH    O3 9383   9.768   0.954   3.317  0.2954 -0.4321  0.2342
   86GLOH   H01 9384   9.830   1.029   3.326 -1.3279  0.8760  0.6636
   87GLOH   H03 9385   7.513   2.074   2.304 -1.3721 -1.7075 -1.8470
   87GLOH    O1 9386   7.525   2.124   2.222 -0.2727  0.0377 -0.6303
   87GLOH    C1 9387   7.422   2.221   2.195  0.0901  0.0265  1.1046
   87GLOH   H02 9388   7.345   2.234   2.271 -2.1201 -2.6947 -0.5720
   87GLOH   H08 9389   7.373   2.194   2.102  0.1528  0.9739  0.7939
   87GLOH    C2 9390   7.500   2.356   2.159  0.9825  0.3746 -0.1225
   87GLOH   H04 9391   7.562   2.352   2.068  2.4104  2.2989  0.7251
   87GLOH    O2 9392   7.409   2.463   2.154  0.2169  0.3611  0.3741
   87GLOH   H05 9393   7.446   2.544   2.193 -0.7516 -0.3913  2.9519
   87GLOH    C3 9394   7.604   2.375   2.269 -0.8936  0.2587  0.5062
   87GLOH   H06 9395   7.671   2.288   2.273  0.3047  1.1632  0.4892
   87GLOH   H07 9396   7.551   2.365   2.364 -0.9823 -1.4425  0.2989
   87GLOH    O3 9397   7.687   2.495   2.258  0.3201  0.3270  0.4873
   87GLOH   H01 9398   7.755   2.490   2.189  1.2645  1.8178  1.2769
   88GLOH   H03 9399   4.409   7.012   2.758  0.2428  0.4422 -2.8825
   88GLOH    O1 9400   4.504   7.027   2.771 -0.0117 -0.1197 -0.1994
   88GLOH    C1 9401   4.551   6.978   2.895  0.2545 -0.4565 -0.1025
   88GLOH   H02 9402   4.563   7.058   2.969  1.9279  0.5249 -1.3873
   88GLOH   H08 9403   4.650   6.933   2.882  0.3019 -0.4524  0.2477
   88GLOH    C2 9404   4.463   6.869   2.961  0.0258 -0.4425 -0.2386
   88GLOH   H04 9405   4.368   6.906   3.003 -1.0719 -0.9401 -2.2412
   88GLOH    O2 9406   4.437   6.762   2.871 -0.4697 -0.1998 -0.5081
   88GLOH   H05 9407   4.353   6.713   2.883 -0.3143 -0.0749  1.1586
   88GLOH    C3 9408   4.546   6.815   3.082  0.0186  0.1405  0.3804
   88GLOH   H06 9409   4.639   6.789   3.031 -0.6217  0.8875 -1.2170
   88GLOH   H07 9410   4.504   6.721   3.117  4.3495 -2.3031 -0.5067
   88GLOH    O3 9411   4.574   6.908   3.194 -0.2126 -0.2851  0.0739
   88GLOH   H01 9412   4.614   6.840   3.251 -0.7542 -0.8458 -0.2111
   89GLOH   H03 9413   7.019   7.100   3.282 -0.7477 -0.0501 -1.0388
   89GLOH    O1 9414   7.037   7.033   3.213 -0.3012 -0.8188 -0.1938
   89GLOH    C1 9415   6.920   7.023   3.137 -0.2520 -0.5505 -0.1708
   89GLOH   H02 9416   6.954   7.019   3.034 -0.1912  1.6125 -0.2576
   89GLOH   H08 9417   6.858   7.112   3.147 -0.9707 -1.1813  1.0640
   89GLOH    C2 9418   6.833   6.908   3.181  0.1939  0.3838  0.3919
   89GLOH   H04 9419   6.898   6.820   3.174  1.3351  1.1179  1.6002
   89GLOH    O2 9420   6.788   6.919   3.314 -0.1664 -0.0996 -0.5078
   89GLOH   H05 9421   6.849   6.864   3.366 -0.7004 -0.4815 -0.2858
   89GLOH    C3 9422   6.717   6.888   3.078 -0.0001 -0.2232 -0.0524
   89GLOH   H06 9423   6.654   6.977   3.083 -3.6175 -2.6939  0.5830
   89GLOH   H07 9424   6.652   6.809   3.116 -0.1042  0.6735  1.6981
   89GLOH    O3 9425   6.758   6.849   2.947 -0.1123 -0.2175 -0.2008
   89GLOH   H01 9426   6.676   6.862   2.896  0.0700 -1.4112 -0.8048
   90GLOH   H03 9427   8.030   4.432   3.580  0.6130 -0.7937  0.1228
   90GLOH    O1 9428   8.007   4.382   3.661 -0.3123 -0.6832 -0.0621
   90GLOH    C1 9429   8.010   4.241   3.631 -0.4252 -0.3574  0.2627
   90GLOH   H02 9430   7.919   4.215   3.576 -0.1654  0.9247 -0.7817
   90GLOH   H08 9431   8.015   4.175   3.718 -1.3630 -0.5316  0.1893
   90GLOH    C2 9432   8.132   4.208   3.539 -0.2372  0.0005  0.2549
   90GLOH   H04 9433   8.224   4.204   3.598 -0.8334  0.0752  1.1901
   90GLOH    O2 9434   8.108   4.072   3.490  0.1808  0.7472 -0.2628
   90GLOH   H05 9435   8.132   4.005   3.557  0.7816  0.0214 -1.1846
   90GLOH    C3 9436   8.164   4.309   3.429 -0.0184 -0.0365 -0.1238
   90GLOH   H06 9437   8.079   4.303   3.360  0.2701  1.6634 -0.6236
   90GLOH   H07 9438   8.249   4.274   3.371  0.6015 -1.4011  1.5601
   90GLOH    O3 9439   8.168   4.446   3.460 -0.1814  0.2692  0.5114
   90GLOH   H01 9440   8.176   4.496   3.377  1.7749 -0.6575  0.1044
   91GLOH   H03 9441   7.740   2.142   4.227 -0.7372 -0.1519  0.1483
   91GLOH    O1 9442   7.729   2.090   4.145 -0.4537  0.5365 -0.3313
   91GLOH    C1 9443   7.658   1.970   4.182  0.5388  0.1989 -0.4100
   91GLOH   H02 9444   7.571   1.999   4.241  0.8869  0.6606 -0.1217
   91GLOH   H08 9445   7.723   1.902   4.238  1.7829  0.3325 -1.6687
   91GLOH    C2 9446   7.607   1.894   4.058  0.1132  0.0593  0.0340
   91GLOH   H04 9447   7.689   1.830   4.021  0.6395  2.1449 -2.5734
   91GLOH    O2 9448   7.496   1.804   4.093 -0.2132 -0.3186 -0.2402
   91GLOH   H05 9449   7.497   1.727   4.034 -0.9356  1.0696 -2.0957
   91GLOH    C3 9450   7.564   1.984   3.937 -0.0045  0.2392  0.6240
   91GLOH   H06 9451   7.462   2.019   3.955 -0.3590 -1.3660  1.7861
   91GLOH   H07 9452   7.553   1.914   3.854 -1.1749 -0.6612  1.5338
   91GLOH    O3 9453   7.655   2.087   3.905 -0.1692 -1.0373 -0.1415
   91GLOH   H01 9454   7.701   2.092   3.991 -1.3059 -1.3608  0.5059
   92GLOH   H03 9455   2.283   3.509   1.612  0.3540 -3.4066  0.6144
   92GLOH    O1 9456   2.349   3.481   1.546  0.9181  0.0589 -0.3909
   92GLOH    C1 9457   2.348   3.336   1.537  0.1107  0.0997 -0.5142
   92GLOH   H02 9458   2.375   3.285   1.630  0.1931 -0.9139 -1.0856
   92GLOH   H08 9459   2.416   3.302   1.459 -0.0249 -0.6069 -0.3302
   92GLOH    C2 9460   2.211   3.281   1.506  0.2536  0.1957  0.4766
   92GLOH   H04 9461   2.175   3.332   1.415  0.7718 -1.4892 -0.7007
   92GLOH    O2 9462   2.213   3.142   1.474  0.2995  0.3107  0.4131
   92GLOH   H05 9463   2.263   3.110   1.398 -0.6500  1.1928 -0.5958
   92GLOH    C3 9464   2.112   3.298   1.622  0.3388  0.6326 -0.2980
   92GLOH   H06 9465   2.174   3.268   1.706  0.5195 -2.3467 -1.4285
   92GLOH   H07 9466   2.028   3.228   1.617 -0.4316  1.5029  0.2932
   92GLOH    O3 9467   2.065   3.434   1.625  0.6220  0.5987  0.1704
   92GLOH   H01 9468   2.065   3.464   1.532  0.1075  0.9779  0.2868
   93GLOH   H03 9469   4.609   8.603   5.393  0.2987 -0.4142 -0.0709
   93GLOH    O1 9470   4.688   8.643   5.435 -0.0130  0.1540 -0.0215
   93GLOH    C1 9471   4.705   8.777   5.385  0.4765 -0.3612 -0.2828
   93GLOH   H02 9472   4.687   8.773   5.277  0.6247 -0.1836 -0.3144
   93GLOH   H08 9473   4.808   8.801   5.410 -0.0094 -0.5459  1.9926
   93GLOH    C2 9474   4.616   8.880   5.455  0.4096  0.3063 -0.5264
   93GLOH   H04 9475   4.627   8.867   5.564  2.8184  1.4353 -0.5965
   93GLOH    O2 9476   4.661   9.013   5.426  0.3876  0.9699  0.3952
   93GLOH   H05 9477   4.721   9.040   5.497 -1.0322  2.7668  0.9703
   93GLOH    C3 9478   4.472   8.874   5.402 -0.1207 -0.9916  0.0995
   93GLOH   H06 9479   4.439   8.771   5.405 -0.1122 -0.9697  1.2042
   93GLOH   H07 9480   4.469   8.896   5.295  2.4540 -2.3686 -0.2998
   93GLOH    O3 9481   4.378   8.958   5.476 -0.0472 -0.6068 -0.5974
   93GLOH   H01 9482   4.297   8.954   5.423 -1.9223 -0.8338  2.1810
   94GLOH   H03 9483   7.294   4.446   0.224 -0.8621 -0.8493 -2.2827
   94GLOH    O1 9484   7.207   4.429   0.264  0.1554  0.0719  0.4227
   94GLOH    C1 9485   7.118   4.423   0.153 -0.4898 -0.1718  0.0422
   94GLOH   H02 9486   7.017   4.407   0.191 -0.2361 -1.8383  0.0167
   94GLOH   H08 9487   7.140   4.341   0.085 -0.7630  1.0219 -1.5192
   94GLOH    C2 9488   7.124   4.544   0.063 -0.3806 -0.1892 -0.0702
   94GLOH   H04 9489   7.100   4.636   0.118  1.7586 -0.5630  1.5562
   94GLOH    O2 9490   7.256   4.573   0.000  0.2229  0.2861 -0.3974
   94GLOH   H05 9491   7.294   4.499  -0.050 -1.1293 -2.8102  2.9167
   94GLOH    C3 9492   7.031   4.528  -0.058  0.5480  0.4251  0.1848
   94GLOH   H06 9493   7.038   4.615  -0.123 -3.1665  1.8980  1.6254
   94GLOH   H07 9494   6.931   4.531  -0.015  0.6105 -0.4841  0.4029
   94GLOH    O3 9495   7.042   4.413  -0.138  0.8091 -0.2910  0.1099
   94GLOH   H01 9496   6.963   4.421  -0.194 -0.4279 -0.2925  1.8211
   95GLOH   H03 9497   4.734   1.444  -0.051  0.8807  0.6795 -0.1578
   95GLOH    O1 9498   4.812   1.387  -0.041 -0.2080 -0.6545  0.8698
   95GLOH    C1 9499   4.803   1.311   0.082  0.4463  0.1722 -0.9075
   95GLOH   H02 9500   4.704   1.267   0.089  0.4941  0.1007 -0.6630
   95GLOH   H08 9501   4.818   1.381   0.164 -1.3149 -0.4070 -0.0832
   95GLOH    C2 9502   4.912   1.201   0.106 -0.0716 -0.5147 -0.2101
   95GLOH   H04 9503   5.007   1.252   0.128 -0.2620 -0.3019  0.1146
   95GLOH    O2 9504   4.868   1.131   0.224  0.1593  0.5381 -0.2557
   95GLOH   H05 9505   4.853   1.190   0.300  0.1150 -0.1338  0.2633
   95GLOH    C3 9506   4.930   1.116  -0.023 -0.1035 -0.2468 -0.3076
   95GLOH   H06 9507   4.840   1.055  -0.026  1.2180 -2.2026 -1.5430
   95GLOH   H07 9508   5.017   1.053  -0.003 -0.0259  0.5983  2.2052
   95GLOH    O3 9509   4.948   1.191  -0.143 -0.0430  0.2861  0.1349
   95GLOH   H01 9510   4.904   1.278  -0.134  2.6253  1.9165 -1.9140
   96GLOH   H03 9511   7.299   9.009   2.467 -2.1533  0.7895  1.2501
   96GLOH    O1 9512   7.256   8.924   2.448 -0.0844  0.0653 -0.3451
   96GLOH    C1 9513   7.145   8.935   2.366  0.0201 -0.1743 -0.8508
   96GLOH   H02 9514   7.098   9.031   2.387  0.9743  0.1738 -0.2537
   96GLOH   H08 9515   7.073   8.859   2.397 -0.5402  0.9699  0.6915
   96GLOH    C2 9516   7.188   8.925   2.220 -0.2619 -0.5598 -0.0983
   96GLOH   H04 9517   7.250   8.834   2.212 -1.4247 -1.1593 -2.8508
   96GLOH    O2 9518   7.075   8.913   2.131 -0.3269 -0.2853 -0.6789
   96GLOH   H05 9519   7.110   8.872   2.050  0.8537  0.2938 -0.4790
   96GLOH    C3 9520   7.265   9.049   2.189 -0.2718  0.3524 -0.5108
   96GLOH   H06 9521   7.200   9.133   2.215 -0.6257  0.2912 -1.1882
   96GLOH   H07 9522   7.281   9.037   2.082 -2.2072 -1.2122 -0.6649
   96GLOH    O3 9523   7.393   9.056   2.247 -0.1201  0.2969 -0.2535
   96GLOH   H01 9524   7.442   8.976   2.223 -0.5517  0.9885 -3.7686
   97GLOH   H03 9525   1.548   5.745   2.330 -0.7291 -0.0188  1.2053
   97GLOH    O1 9526   1.519   5.657   2.299  0.4527  0.0817 -0.2435
   97GLOH    C1 9527   1.491   5.651   2.157  0.1743 -0.1571  0.1300
   97GLOH   H02 9528   1.579   5.689   2.105 -0.2742  0.3092 -0.2897
   97GLOH   H08 9529   1.407   5.715   2.131 -1.4104 -2.2164  0.0519
   97GLOH    C2 9530   1.473   5.512   2.096  0.6202 -0.8001  0.1389
   97GLOH   H04 9531   1.453   5.537   1.991 -1.1077  1.6615  1.0065
   97GLOH    O2 9532   1.585   5.423   2.105  0.2248  0.6764  0.5906
   97GLOH   H05 9533   1.657   5.448   2.045 -1.1226 -1.0304 -1.8153
   97GLOH    C3 9534   1.359   5.445   2.175 -0.2539  0.1057  0.0766
   97GLOH   H06 9535   1.398   5.421   2.274  1.5831 -1.9332 -1.0671
   97GLOH   H07 9536   1.355   5.347   2.127  1.0744 -0.3936  0.9329
   97GLOH    O3 9537   1.231   5.511   2.189 -0.0109 -0.1669 -0.1684
   97GLOH   H01 9538   1.220   5.556   2.104  1.8543 -1.2778 -1.0338
   98GLOH   H03 9539   5.169   8.907   2.599  1.9026  2.0609  2.0239
   98GLOH    O1 9540   5.123   8.991   2.578  0.1499  0.5400 -0.4602
   98GLOH    C1 9541   5.072   9.039   2.702 -0.1681 -0.5663  0.5366
   98GLOH   H02 9542   5.013   9.131   2.696  0.2034 -0.2193  1.9024
   98GLOH   H08 9543   5.152   9.067   2.770  1.3709 -1.7692 -0.7530
   98GLOH    C2 9544   4.987   8.944   2.784  0.2110  0.6325  0.5677
   98GLOH   H04 9545   5.032   8.844   2.788 -1.8837 -0.3822 -0.2773
   98GLOH    O2 9546   4.978   8.994   2.920 -0.2431 -0.2704 -0.1073
   98GLOH   H05 9547   4.920   8.938   2.975 -3.6412  3.2341  0.0702
   98GLOH    C3 9548   4.844   8.943   2.722 -0.2085  0.0025  0.6283
   98GLOH   H06 9549   4.866   8.951   2.615  0.3149 -1.2200  0.6269
   98GLOH   H07 9550   4.800   9.038   2.753 -0.5854 -0.3524  1.1923
   98GLOH    O3 9551   4.762   8.826   2.762 -0.3329  0.1277 -0.1411
   98GLOH   H01 9552   4.669   8.843   2.741  0.0155  0.7067 -1.2778
   99GLOH   H03 9553   3.952   5.391   2.470  2.3088 -3.0527  0.6627
   99GLOH    O1 9554   4.013   5.442   2.413 -0.3159 -0.0505  0.4244
   99GLOH    C1 9555   4.052   5.562   2.476  0.1531 -0.5361 -0.0828
   99GLOH   H02 9556   4.096   5.632   2.404 -0.6876 -2.1030 -2.1711
   99GLOH   H08 9557   4.123   5.551   2.558  0.3343  2.8026  0.2586
   99GLOH    C2 9558   3.928   5.649   2.523 -0.1395  0.4128 -0.1937
   99GLOH   H04 9559   3.873   5.592   2.599 -0.0775 -0.8940 -1.1110
   99GLOH    O2 9560   3.972   5.767   2.590 -0.6622 -0.1980 -1.1896
   99GLOH   H05 9561   3.897   5.820   2.623 -1.5135 -1.4783 -1.0646
   99GLOH    C3 9562   3.836   5.685   2.402  0.5278 -0.0439 -0.0392
   99GLOH   H06 9563   3.898   5.711   2.317  0.3384  1.1505  0.1813
   99GLOH   H07 9564   3.787   5.780   2.423 -0.4418 -0.7498  0.9577
   99GLOH    O3 9565   3.735   5.581   2.376 -0.3864 -0.4131 -1.3280
   99GLOH   H01 9566   3.663   5.611   2.435  0.7431 -1.1758  0.4832
  100GLOH   H03 9567   4.934   8.644   5.216  0.1857 -0.2746  0.5169
  100GLOH    O1 9568   4.930   8.681   5.126 -0.0109  0.1259  0.6893
  100GLOH    C1 9569   4.964   8.823   5.115 -0.0129  0.5729  0.0120
  100GLOH   H02 9570   5.069   8.825   5.142  0.6390 -0.7157 -2.3223
  100GLOH   H08 9571   4.912   8.877   5.195 -1.8643 -2.5782  1.0042
  100GLOH    C2 9572   4.944   8.871   4.970  0.0634 -0.5599  0.1689
  100GLOH   H04 9573   4.838   8.856   4.943 -0.1221 -1.8405  1.5346
  100GLOH    O2 9574   4.975   9.014   4.963  0.2348  0.3221 -0.5241
  100GLOH   H05 9575   4.893   9.066   4.953  0.4770  1.4091  2.7435
  100GLOH    C3 9576   5.046   8.793   4.881  0.3629 -0.5652 -0.5961
  100GLOH   H06 9577   5.041   8.684   4.891  0.2074 -0.4851  0.2573
  100GLOH   H07 9578   5.141   8.819   4.926 -0.3748  1.0863  0.0252
  100GLOH    O3 9579   5.027   8.829   4.743  0.2713  0.2846  0.2995
  100GLOH   H01 9580   5.104   8.802   4.691 -0.4926  0.2011 -0.7968
  101GLOH   H03 9581   4.749   4.113   2.450 -1.0104 -1.3231  0.3855
  101GLOH    O1 9582   4.772   4.115   2.545 -0.8059 -0.3397  0.3273
  101GLOH    C1 9583   4.883   4.025   2.562 -0.2394  0.7208  1.0280
  101GLOH   H02 9584   4.864   3.927   2.517 -0.1723  1.1652  0.0069
  101GLOH   H08 9585   4.895   4.003   2.668  0.5241  0.8435  0.9650
  101GLOH    C2 9586   5.008   4.085   2.498 -0.4856  0.3780  0.4338
  101GLOH   H04 9587   5.046   4.167   2.561  2.4565 -0.3369 -0.3448
  101GLOH    O2 9588   5.118   3.994   2.494 -0.9793  0.2138  0.7695
  101GLOH   H05 9589   5.089   3.909   2.458 -1.5981  0.6166  0.3011
  101GLOH    C3 9590   4.979   4.153   2.358  0.7888 -0.2197  0.0194
  101GLOH   H06 9591   5.074   4.187   2.317  0.4073  2.6988  1.4130
  101GLOH   H07 9592   4.919   4.241   2.381  0.6709 -0.5577  1.0390
  101GLOH    O3 9593   4.921   4.060   2.267  0.0351  0.0519  0.1793
  101GLOH   H01 9594   4.922   4.101   2.179 -2.1453  0.1116  0.1682
  102GLOH   H03 9595   5.160   2.610   3.762 -2.7283  0.5997 -1.0250
  102GLOH    O1 9596   5.172   2.544   3.692 -0.4693 -0.0625 -0.0744
  102GLOH    C1 9597   5.055   2.543   3.610  0.3587 -0.0724 -0.4886
  102GLOH   H02 9598   5.050   2.625   3.538 -0.6308 -0.0401 -0.3841
  102GLOH   H08 9599   4.962   2.542   3.667  0.5081  0.6398 -0.2222
  102GLOH    C2 9600   5.044   2.408   3.531 -0.4435 -0.7562  0.4762
  102GLOH   H04 9601   4.999   2.331   3.595 -0.6533  1.5994  3.2654
  102GLOH    O2 9602   4.937   2.429   3.433  0.1169 -0.2194 -0.0098
  102GLOH   H05 9603   4.890   2.344   3.423 -0.5206  0.1223  0.0118
  102GLOH    C3 9604   5.173   2.354   3.463 -0.0809  0.0711  0.1735
  102GLOH   H06 9605   5.190   2.416   3.375  1.9365 -0.2450  0.3173
  102GLOH   H07 9606   5.147   2.260   3.414  0.6856 -0.7030  1.2253
  102GLOH    O3 9607   5.290   2.352   3.543  0.1905 -0.3403 -0.5826
  102GLOH   H01 9608   5.282   2.432   3.598  0.8749 -0.6866  0.0389
  103GLOH   H03 9609   0.933   5.621   0.503 -1.7302 -0.1618  1.2738
  103GLOH    O1 9610   1.012   5.640   0.557 -0.3578 -0.2354 -0.6607
  103GLOH    C1 9611   1.055   5.519   0.625 -0.1899 -0.1637 -0.5727
  103GLOH   H02 9612   1.090   5.447   0.551  0.8871  2.0033 -2.2417
  103GLOH   H08 9613   0.976   5.471   0.683  1.0683 -2.6419 -0.8862
  103GLOH    C2 9614   1.164   5.556   0.717 -0.0876  0.5439 -0.6739
  103GLOH   H04 9615   1.110   5.603   0.801  2.0023  0.1101  0.9683
  103GLOH    O2 9616   1.228   5.443   0.776 -0.1739 -0.0777 -0.3743
  103GLOH   H05 9617   1.272   5.395   0.704  0.3429 -1.5097  0.8609
  103GLOH    C3 9618   1.267   5.654   0.652  0.5756  0.5346 -0.0117
  103GLOH   H06 9619   1.293   5.609   0.556  1.3099 -0.0060  0.4439
  103GLOH   H07 9620   1.359   5.657   0.709 -0.4581 -1.5420  1.7891
  103GLOH    O3 9621   1.203   5.780   0.621 -0.6885  0.6235 -0.0933
  103GLOH   H01 9622   1.110   5.753   0.604 -0.2736 -0.6512 -0.4056
  104GLOH   H03 9623   7.102   7.112   1.997 -1.5426 -1.6184 -2.2920
  104GLOH    O1 9624   7.112   7.021   2.028  0.2836 -0.6021  0.2105
  104GLOH    C1 9625   7.194   6.967   1.926 -0.4005 -0.3279  0.1150
  104GLOH   H02 9626   7.169   7.009   1.828  1.2332  0.0649 -0.1484
  104GLOH   H08 9627   7.178   6.860   1.914  1.3424 -0.8864  2.4760
  104GLOH    C2 9628   7.342   6.978   1.935  0.1010 -0.0868 -0.0659
  104GLOH   H04 9629   7.356   7.077   1.978 -1.2313 -0.2322  0.7122
  104GLOH    O2 9630   7.386   6.882   2.038  0.1526  0.0347  0.1132
  104GLOH   H05 9631   7.472   6.916   2.069 -0.3785  2.7518 -1.2430
  104GLOH    C3 9632   7.421   6.960   1.800  0.3519  0.0713 -0.5766
  104GLOH   H06 9633   7.374   6.871   1.759  1.0182 -0.9932  0.8885
  104GLOH   H07 9634   7.525   6.934   1.819  0.8496  0.8370 -2.1479
  104GLOH    O3 9635   7.404   7.076   1.719  0.1494 -0.1877  0.1070
  104GLOH   H01 9636   7.497   7.099   1.698 -0.1352  0.6276 -0.2753
  105GLOH   H03 9637   3.512   5.119   4.334 -0.6524 -0.4605 -0.6942
  105GLOH    O1 9638   3.560   5.059   4.393 -0.4286  0.3189 -0.0649
  105GLOH    C1 9639   3.647   5.144   4.467  0.1873 -0.2130  0.7641
  105GLOH   H02 9640   3.738   5.169   4.413  1.4271 -1.1065  2.3849
  105GLOH   H08 9641   3.688   5.087   4.550  0.3377  0.2249  0.9922
  105GLOH    C2 9642   3.580   5.263   4.530 -0.1637  0.3342 -0.0200
  105GLOH   H04 9643   3.646   5.317   4.600 -0.6505  0.1450  0.5824
  105GLOH    O2 9644   3.531   5.359   4.430 -0.5512 -0.1344 -0.2979
  105GLOH   H05 9645   3.596   5.368   4.359  0.3571  2.5941  0.8284
  105GLOH    C3 9646   3.462   5.214   4.618 -0.3336  0.4567 -0.2459
  105GLOH   H06 9647   3.386   5.167   4.556  0.6137 -0.5476 -0.6673
  105GLOH   H07 9648   3.420   5.303   4.665 -0.3829  0.6751 -0.7086
  105GLOH    O3 9649   3.504   5.130   4.725 -0.3621  0.1165  0.1810
  105GLOH   H01 9650   3.548   5.189   4.788  0.2916  0.8143 -0.9145
  106GLOH   H03 9651   4.222   3.953   5.129  0.8049  0.8746  0.2716
  106GLOH    O1 9652   4.146   3.983   5.181  0.2611 -0.1286  0.0594
  106GLOH    C1 9653   4.082   3.871   5.251 -0.7752  0.1800  0.3511
  106GLOH   H02 9654   4.150   3.828   5.325  1.4265  0.6943 -1.3221
  106GLOH   H08 9655   4.072   3.789   5.180  1.4522  1.3755 -1.4026
  106GLOH    C2 9656   3.957   3.906   5.333  0.2697  0.4167  0.2502
  106GLOH   H04 9657   3.881   3.947   5.265  0.2944  0.3044  0.1548
  106GLOH    O2 9658   3.897   3.782   5.395  0.6933 -0.1267 -0.0898
  106GLOH   H05 9659   3.875   3.716   5.328 -2.9631  0.4583  0.4277
  106GLOH    C3 9660   3.980   4.005   5.446  0.5647 -0.5618  1.2095
  106GLOH   H06 9661   4.027   4.091   5.399 -1.2409  0.1016  0.5411
  106GLOH   H07 9662   4.053   3.956   5.510 -1.9275 -3.0878  2.2153
  106GLOH    O3 9663   3.865   4.034   5.528  0.3963  0.1314 -0.2278
  106GLOH   H01 9664   3.908   4.087   5.597 -2.0220 -0.5333  1.8668
  107GLOH   H03 9665   9.619   0.988   0.418 -2.0040 -0.8085 -1.9447
  107GLOH    O1 9666   9.565   1.055   0.464 -0.2329 -0.5979 -0.0921
  107GLOH    C1 9667   9.638   1.145   0.549  0.3474  0.1662  0.5749
  107GLOH   H02 9668   9.587   1.149   0.645  3.2874  0.2435  2.2011
  107GLOH   H08 9669   9.643   1.243   0.500 -0.2108 -0.8155 -1.5069
  107GLOH    C2 9670   9.779   1.103   0.589  0.3318 -0.0289  0.2164
  107GLOH   H04 9671   9.771   0.997   0.619 -0.3433 -0.6007 -1.8916
  107GLOH    O2 9672   9.886   1.113   0.494 -0.3640 -0.1118  0.2139
  107GLOH   H05 9673   9.972   1.121   0.538 -1.4714  3.5465  1.9120
  107GLOH    C3 9674   9.825   1.176   0.715 -0.3858  0.6407  0.4471
  107GLOH   H06 9675   9.907   1.129   0.769 -0.8701 -0.4412  0.2701
  107GLOH   H07 9676   9.739   1.175   0.782 -0.1702  3.1353  0.7763
  107GLOH    O3 9677   9.857   1.314   0.690 -0.0152  0.4606  0.1052
  107GLOH   H01 9678   9.808   1.374   0.749 -1.9897  0.2455 -1.2936
  108GLOH   H03 9679   4.407   2.606   4.931 -2.6699 -0.5025  2.9905
  108GLOH    O1 9680   4.467   2.533   4.957  0.2360  0.5792 -0.2447
  108GLOH    C1 9681   4.457   2.425   4.866 -0.5856  0.4334  0.3248
  108GLOH   H02 9682   4.462   2.336   4.929 -0.3830  0.4881  0.3847
  108GLOH   H08 9683   4.547   2.425   4.804 -1.0394  3.0673 -0.3747
  108GLOH    C2 9684   4.337   2.424   4.767 -0.1229 -0.1023  0.3569
  108GLOH   H04 9685   4.359   2.339   4.701  0.3415  0.1003  0.2574
  108GLOH    O2 9686   4.211   2.397   4.828  0.1099 -0.1778  0.4528
  108GLOH   H05 9687   4.204   2.442   4.914 -0.2200  1.8138 -0.5658
  108GLOH    C3 9688   4.345   2.544   4.670 -0.3029 -0.3491  0.0975
  108GLOH   H06 9689   4.316   2.637   4.718  1.0474  0.0838  0.0933
  108GLOH   H07 9690   4.274   2.537   4.587  2.1252  1.4766 -2.2387
  108GLOH    O3 9691   4.476   2.555   4.615 -0.4586 -0.5406 -0.4652
  108GLOH   H01 9692   4.477   2.610   4.535  2.4340  0.6848  0.3219
  109GLOH   H03 9693   3.290   2.402   3.121  0.0277 -0.3536  1.3085
  109GLOH    O1 9694   3.312   2.315   3.083  0.0901  0.3379 -0.2698
  109GLOH    C1 9695   3.448   2.339   3.038 -0.2042 -0.0135 -0.0769
  109GLOH   H02 9696   3.501   2.410   3.103  0.4401  0.7253 -1.3863
  109GLOH   H08 9697   3.430   2.394   2.946 -1.6525 -0.8682 -0.3089
  109GLOH    C2 9698   3.539   2.218   3.003 -0.0821 -0.3741  0.3760
  109GLOH   H04 9699   3.628   2.272   2.967 -0.5388  0.2594  0.1809
  109GLOH    O2 9700   3.581   2.140   3.115  0.3397  0.2090 -0.3900
  109GLOH   H05 9701   3.633   2.191   3.179  1.0664 -0.7368 -0.2014
  109GLOH    C3 9702   3.482   2.142   2.881 -0.3073 -0.0885 -0.5114
  109GLOH   H06 9703   3.379   2.170   2.861  0.1745  0.9807 -1.6016
  109GLOH   H07 9704   3.470   2.036   2.903  1.9098 -0.3193 -0.3041
  109GLOH    O3 9705   3.566   2.174   2.764 -0.5413 -0.3503 -0.2224
  109GLOH   H01 9706   3.657   2.145   2.783 -0.7456  0.7326  2.6417
  110GLOH   H03 9707   4.973   0.475   2.373  0.3965  0.3957 -0.4301
  110GLOH    O1 9708   5.065   0.470   2.341  0.3658 -0.6742 -0.3441
  110GLOH    C1 9709   5.133   0.384   2.435  0.8334  0.3541 -0.1420
  110GLOH   H02 9710   5.228   0.355   2.392  1.7640  0.3681  1.8249
  110GLOH   H08 9711   5.077   0.293   2.457  1.5891 -0.5347 -1.8283
  110GLOH    C2 9712   5.160   0.452   2.571 -0.3449  0.5362 -0.8366
  110GLOH   H04 9713   5.066   0.494   2.610  0.3731 -0.8101  2.4615
  110GLOH    O2 9714   5.223   0.361   2.666  0.4463 -0.4891 -0.1582
  110GLOH   H05 9715   5.195   0.376   2.758  1.6250 -0.0238  0.1376
  110GLOH    C3 9716   5.255   0.565   2.540 -0.6878  0.1170  0.3809
  110GLOH   H06 9717   5.337   0.522   2.483 -0.2822 -1.1298  1.8815
  110GLOH   H07 9718   5.286   0.607   2.636  0.2900 -0.9281  0.5246
  110GLOH    O3 9719   5.192   0.663   2.456  0.1766  0.0137  0.3263
  110GLOH   H01 9720   5.141   0.604   2.399 -2.2594  0.1958  2.2137
  111GLOH   H03 9721   4.555   3.358   4.980  2.7414 -0.4904  0.4724
  111GLOH    O1 9722   4.558   3.374   5.076  0.1241 -0.0268  0.5235
  111GLOH    C1 9723   4.500   3.497   5.119 -0.4287 -0.2667  0.1251
  111GLOH   H02 9724   4.507   3.495   5.227 -1.4002  3.2227  0.3022
  111GLOH   H08 9725   4.394   3.503   5.094 -0.1652  1.0390 -0.7126
  111GLOH    C2 9726   4.575   3.618   5.064 -0.2727  0.1525 -0.0627
  111GLOH   H04 9727   4.572   3.603   4.955 -0.1823  0.6548 -0.1381
  111GLOH    O2 9728   4.512   3.743   5.104  0.7825 -0.6521 -0.0121
  111GLOH   H05 9729   4.579   3.796   5.150  0.0031  0.2079  0.1592
  111GLOH    C3 9730   4.722   3.614   5.105  0.3687 -0.2557  0.1400
  111GLOH   H06 9731   4.763   3.709   5.073 -2.0751  0.6263 -0.4763
  111GLOH   H07 9732   4.761   3.528   5.050 -1.6406 -0.5582 -0.8561
  111GLOH    O3 9733   4.748   3.602   5.241  0.1448  0.1296 -0.1691
  111GLOH   H01 9734   4.845   3.592   5.247  0.4768  2.1320 -1.6354
  112GLOH   H03 9735   6.591   0.770   1.390 -0.1506  1.5872 -0.4174
  112GLOH    O1 9736   6.669   0.759   1.334 -0.2808  0.0512 -0.2970
  112GLOH    C1 9737   6.680   0.871   1.250  0.7225  0.1986  0.9297
  112GLOH   H02 9738   6.677   0.959   1.314 -1.8108 -0.7774  2.1751
  112GLOH   H08 9739   6.591   0.889   1.189 -0.0363 -0.1366  1.9284
  112GLOH    C2 9740   6.812   0.860   1.161  0.2471  0.2981  1.0381
  112GLOH   H04 9741   6.815   0.771   1.097  0.2536  0.9857  0.0717
  112GLOH    O2 9742   6.806   0.971   1.071 -0.2741  0.0082 -0.1106
  112GLOH   H05 9743   6.885   1.028   1.077  0.6537 -1.2396 -0.1974
  112GLOH    C3 9744   6.941   0.856   1.243 -0.3788 -0.3680 -0.4875
  112GLOH   H06 9745   6.963   0.958   1.272 -1.8570 -1.0054  3.1734
  112GLOH   H07 9746   7.026   0.815   1.189  0.3446 -0.6778  0.8756
  112GLOH    O3 9747   6.928   0.771   1.360 -0.0446 -0.1387  0.1226
  112GLOH   H01 9748   6.834   0.753   1.379  0.6221 -2.5258  1.3488
  113GLOH   H03 9749   8.931  10.008   3.219  1.2308 -1.4284 -0.6412
  113GLOH    O1 9750   8.857   9.961   3.176 -0.0460  0.1218 -0.1930
  113GLOH    C1 9751   8.734  10.032   3.193 -0.0508  0.5258 -0.7187
  113GLOH   H02 9752   8.750  10.137   3.165  1.1321  0.2601 -1.0614
  113GLOH   H08 9753   8.708  10.035   3.299  1.9472 -0.5931 -0.1793
  113GLOH    C2 9754   8.614   9.981   3.109  0.2490  1.0239 -0.0634
  113GLOH   H04 9755   8.597   9.879   3.146  1.2580  2.4181  4.4967
  113GLOH    O2 9756   8.492  10.054   3.140 -0.0315 -0.1774  0.2615
  113GLOH   H05 9757   8.411  10.003   3.127 -0.2622  0.3677 -0.4718
  113GLOH    C3 9758   8.645   9.985   2.956  0.7558  0.7201 -0.7093
  113GLOH   H06 9759   8.646  10.089   2.925  1.0500  0.1692 -2.6111
  113GLOH   H07 9760   8.568   9.940   2.894  1.4328 -1.9973  0.3112
  113GLOH    O3 9761   8.766   9.915   2.917  0.3352  0.3118 -0.1505
  113GLOH   H01 9762   8.827   9.924   2.993  1.4130 -1.9244 -0.6939
  114GLOH   H03 9763   2.840   1.185   3.431  0.8748 -2.2495 -0.5042
  114GLOH    O1 9764   2.830   1.219   3.340 -0.7278 -0.4294  0.3347
  114GLOH    C1 9765   2.955   1.262   3.282 -0.2115  0.5974  0.3222
  114GLOH   H02 9766   2.976   1.203   3.193 -1.5769 -1.2061  1.1718
  114GLOH   H08 9767   3.042   1.238   3.343  0.8873  1.5455 -0.8443
  114GLOH    C2 9768   2.960   1.413   3.243 -0.2710 -0.3725  0.1597
  114GLOH   H04 9769   2.917   1.458   3.333 -0.0884 -0.5274  0.3243
  114GLOH    O2 9770   3.096   1.460   3.222 -0.0099  0.1518 -0.2628
  114GLOH   H05 9771   3.132   1.447   3.133  1.1523  0.3208  0.1687
  114GLOH    C3 9772   2.875   1.445   3.119  0.2978 -0.1902 -0.8199
  114GLOH   H06 9773   2.890   1.547   3.083  0.7612 -0.0831 -0.3341
  114GLOH   H07 9774   2.769   1.446   3.145  0.6207 -0.3935  0.5626
  114GLOH    O3 9775   2.915   1.348   3.018  0.1682 -0.3658  0.0560
  114GLOH   H01 9776   2.994   1.381   2.971 -0.6188  0.3285 -0.7978
  115GLOH   H03 9777   5.921   8.302   1.631 -2.2786 -1.0062  0.0249
  115GLOH    O1 9778   5.923   8.303   1.534  0.2664 -0.4095  0.0539
  115GLOH    C1 9779   5.822   8.395   1.504 -1.0027 -0.1421  0.9379
  115GLOH   H02 9780   5.772   8.370   1.411 -1.7173 -0.6934  1.4659
  115GLOH   H08 9781   5.857   8.498   1.497  0.2314 -0.6723 -1.1523
  115GLOH    C2 9782   5.705   8.395   1.603 -0.2396  0.2278 -0.3942
  115GLOH   H04 9783   5.637   8.309   1.596  0.3278 -0.5963  3.2257
  115GLOH    O2 9784   5.761   8.406   1.735 -0.4390  0.0761  0.5039
  115GLOH   H05 9785   5.802   8.494   1.746  0.2570 -0.1364 -0.3077
  115GLOH    C3 9786   5.624   8.521   1.569  0.2808 -0.0247 -0.3568
  115GLOH   H06 9787   5.683   8.610   1.594  1.7650 -1.4409  1.3110
  115GLOH   H07 9788   5.544   8.532   1.642  0.0978  0.2587 -0.5970
  115GLOH    O3 9789   5.579   8.533   1.435  0.3145 -0.4261 -0.0308
  115GLOH   H01 9790   5.508   8.600   1.439  1.6970  1.0077  1.8340
  116GLOH   H03 9791  10.010   0.684   5.326 -0.7539  0.6942  0.2757
  116GLOH    O1 9792  10.030   0.687   5.231  0.0014  1.0612  0.4402
  116GLOH    C1 9793   9.902   0.682   5.164  0.4616 -0.5190 -0.5274
  116GLOH   H02 9794   9.924   0.660   5.060  1.5214  0.2550 -0.4721
  116GLOH   H08 9795   9.863   0.783   5.163  1.0516 -0.2921 -0.5975
  116GLOH    C2 9796   9.817   0.573   5.226  0.5960 -0.1868  0.1508
  116GLOH   H04 9797   9.800   0.599   5.331  1.3691  1.2074 -0.0590
  116GLOH    O2 9798   9.688   0.586   5.162  0.1635  0.1022  0.1767
  116GLOH   H05 9799   9.672   0.682   5.156  0.9023  0.1823 -0.6499
  116GLOH    C3 9800   9.881   0.435   5.214 -0.1236 -0.1998  0.9703
  116GLOH   H06 9801   9.989   0.448   5.218 -0.2096  1.2308 -0.8383
  116GLOH   H07 9802   9.861   0.402   5.112  0.5640 -3.0304  1.7254
  116GLOH    O3 9803   9.828   0.325   5.291  0.1896  1.0582 -0.5578
  116GLOH   H01 9804   9.743   0.347   5.334  1.6030 -0.5289  3.3136
  117GLOH   H03 9805   7.517   5.247  -0.072 -0.1062 -0.6389 -0.9878
  117GLOH    O1 9806   7.427   5.257  -0.037  0.2019  0.1218 -0.3810
  117GLOH    C1 9807   7.409   5.159   0.072 -0.6433  0.6252  0.1265
  117GLOH   H02 9808   7.458   5.064   0.049 -2.3863 -0.2534 -0.0519
  117GLOH   H08 9809   7.304   5.136   0.088 -0.5281  0.7909  1.1293
  117GLOH    C2 9810   7.474   5.201   0.208 -0.0337 -0.4547 -0.4861
  117GLOH   H04 9811   7.398   5.266   0.252  2.4310  0.6927  2.2425
  117GLOH    O2 9812   7.490   5.087   0.295  0.4630 -0.4261  0.3304
  117GLOH   H05 9813   7.454   5.005   0.257  0.4350 -0.8148  1.1890
  117GLOH    C3 9814   7.609   5.277   0.196  0.2679  0.0293  0.1876
  117GLOH   H06 9815   7.691   5.219   0.155 -0.0244  0.1388 -0.5630
  117GLOH   H07 9816   7.644   5.312   0.293 -0.4874  1.9075 -0.1808
  117GLOH    O3 9817   7.583   5.402   0.130  0.2512  0.4365  0.2465
  117GLOH   H01 9818   7.518   5.378   0.061  3.2479  1.0270 -2.8737
  118GLOH   H03 9819   3.103   5.889   3.442  3.3536  1.4484  3.1026
  118GLOH    O1 9820   3.037   5.934   3.498  0.1508  0.0374  0.6259
  118GLOH    C1 9821   3.104   6.045   3.562  0.0412  0.3394 -0.1041
  118GLOH   H02 9822   3.043   6.134   3.572 -0.1947  0.1112  0.5718
  118GLOH   H08 9823   3.195   6.077   3.511 -0.1951  0.4457 -0.4623
  118GLOH    C2 9824   3.150   6.006   3.706  0.5351  0.0838  0.2538
  118GLOH   H04 9825   3.190   5.905   3.690 -2.9183 -1.2896 -0.0900
  118GLOH    O2 9826   3.250   6.093   3.769  0.1491 -0.2665 -0.4877
  118GLOH   H05 9827   3.246   6.081   3.865  0.2741 -1.4373 -0.6235
  118GLOH    C3 9828   3.028   5.990   3.793 -0.1167  0.0333  0.3343
  118GLOH   H06 9829   2.983   6.089   3.802 -1.9484 -0.7523  0.1008
  118GLOH   H07 9830   3.054   5.958   3.893 -0.7220 -2.1069 -0.1601
  118GLOH    O3 9831   2.937   5.897   3.738  0.5078  0.6161 -0.7322
  118GLOH   H01 9832   2.965   5.891   3.645 -0.3076  0.7484 -1.0002
  119GLOH   H03 9833   6.528   8.835   4.171 -1.5746  0.2468 -1.8844
  119GLOH    O1 9834   6.478   8.776   4.230  1.0307  0.0120  0.2134
  119GLOH    C1 9835   6.337   8.797   4.224  0.0559 -0.1802 -1.1262
  119GLOH   H02 9836   6.309   8.864   4.305 -1.9664 -0.9178 -1.1880
  119GLOH   H08 9837   6.284   8.706   4.250  1.5180 -0.8276 -0.3329
  119GLOH    C2 9838   6.290   8.848   4.085 -0.5646  0.7283 -0.5275
  119GLOH   H04 9839   6.344   8.941   4.065 -0.2181  0.6111 -0.1344
  119GLOH    O2 9840   6.312   8.740   3.987 -0.1259  0.0839 -0.0253
  119GLOH   H05 9841   6.301   8.778   3.899 -0.2745  0.1640  0.0278
  119GLOH    C3 9842   6.145   8.878   4.078  0.0839 -0.1375  0.0775
  119GLOH   H06 9843   6.099   8.791   4.124  1.8359 -0.1843  1.8063
  119GLOH   H07 9844   6.111   8.886   3.974  0.0450 -1.6176 -0.0423
  119GLOH    O3 9845   6.093   8.994   4.145  0.0370  0.2078 -0.0274
  119GLOH   H01 9846   6.171   9.037   4.184 -0.2788  1.0506 -0.3159
  120GLOH   H03 9847   2.432   9.001   4.708 -1.0264  1.4426 -1.2801
  120GLOH    O1 9848   2.400   9.057   4.781 -0.2581  0.1967  0.0367
  120GLOH    C1 9849   2.498   9.044   4.886 -0.2637  0.8293  1.1265
  120GLOH   H02 9850   2.600   9.048   4.850  0.4883  1.5560  3.2619
  120GLOH   H08 9851   2.483   8.942   4.920 -1.4797  0.1320 -1.3700
  120GLOH    C2 9852   2.484   9.145   5.006  0.0042  0.5589  0.1880
  120GLOH   H04 9853   2.569   9.138   5.076 -0.8017 -0.3342  1.0926
  120GLOH    O2 9854   2.473   9.281   4.965  0.5118 -0.3536  0.1046
  120GLOH   H05 9855   2.389   9.303   4.921  0.6925  1.6802  0.7082
  120GLOH    C3 9856   2.362   9.108   5.092 -0.3575 -0.1568  0.1497
  120GLOH   H06 9857   2.275   9.092   5.028  2.1811 -0.4067 -3.3925
  120GLOH   H07 9858   2.337   9.191   5.158  1.0315 -2.2217  3.4351
  120GLOH    O3 9859   2.375   8.984   5.170 -0.0328 -0.4242  0.1277
  120GLOH   H01 9860   2.395   9.004   5.264  1.1481 -1.5182  0.1143
  123ACOH    H4 9861   6.031   7.233   4.206  1.0734 -0.0868 -1.1510
  123ACOH    O2 9862   6.076   7.175   4.269 -0.0773 -0.3564 -0.5570
  123ACOH    C2 9863   6.208   7.204   4.267 -0.8929  0.1705  0.4845
  123ACOH    O1 9864   6.262   7.264   4.172 -0.0869  0.1887 -0.1210
  123ACOH    C1 9865   6.280   7.130   4.374  0.0436  0.0326 -0.1362
  123ACOH    H1 9866   6.342   7.201   4.429 -0.9527  1.1369 -0.4188
  123ACOH    H2 9867   6.332   7.045   4.330  0.0633  0.8020 -1.6527
  123ACOH    H3 9868   6.209   7.091   4.447 -0.1228  2.7384  1.2046
  124ACOH    H4 9869   4.697   5.445   2.056  0.0058  2.6295  2.6592
  124ACOH    O2 9870   4.791   5.426   2.072 -0.0148 -0.1279 -0.0484
  124ACOH    C2 9871   4.827   5.320   2.013 -0.7777  0.1897 -0.0299
  124ACOH    O1 9872   4.768   5.261   1.923 -0.1056 -0.3041  0.1200
  124ACOH    C1 9873   4.966   5.295   2.061  0.0047 -0.3551 -0.4739
  124ACOH    H1 9874   5.002   5.203   2.014 -0.0343 -0.4224 -0.3712
  124ACOH    H2 9875   4.961   5.298   2.170 -3.3204 -2.2823 -0.5041
  124ACOH    H3 9876   5.026   5.380   2.029  1.8362 -1.5713 -0.3741
  125ACOH    H4 9877   5.350   9.191   1.041  0.1039  3.6532  0.3178
  125ACOH    O2 9878   5.408   9.192   0.963  0.4096 -0.3447  0.3977
  125ACOH    C2 9879   5.457   9.317   0.978 -0.4167 -0.0906 -0.3548
  125ACOH    O1 9880   5.386   9.413   1.019 -0.4051  0.1378  0.6416
  125ACOH    C1 9881   5.591   9.336   0.915 -0.5161 -0.1108 -0.2456
  125ACOH    H1 9882   5.651   9.411   0.965 -0.7278  1.2022 -1.8973
  125ACOH    H2 9883   5.590   9.371   0.811  1.7119 -0.9840 -0.5840
  125ACOH    H3 9884   5.643   9.241   0.924  2.7408  1.3479 -2.8774
  128ACOH    H4 9885   7.836   5.626   4.008  0.1786  0.1174  0.2162
  128ACOH    O2 9886   7.756   5.678   4.022 -0.1092 -0.0585 -0.7257
  128ACOH    C2 9887   7.657   5.636   3.936 -0.2969  0.7423 -0.5673
  128ACOH    O1 9888   7.674   5.548   3.852  0.3269  0.0468 -0.1583
  128ACOH    C1 9889   7.522   5.696   3.956  0.1784 -0.2287 -0.2034
  128ACOH    H1 9890   7.520   5.782   3.888  2.1471 -2.0438 -2.6740
  128ACOH    H2 9891   7.508   5.730   4.058  1.3995  1.7400 -0.6681
  128ACOH    H3 9892   7.447   5.621   3.930 -1.7069  1.7195 -0.4346
  129ACOH    H4 9893   7.045   3.294   0.091  2.0977  2.6480  1.8746
  129ACOH    O2 9894   7.037   3.237   0.170  0.2263  0.5665  0.2758
  129ACOH    C2 9895   7.009   3.319   0.275  0.2995  0.1498  0.3072
  129ACOH    O1 9896   6.972   3.433   0.269 -0.1165  0.6107 -0.3682
  129ACOH    C1 9897   7.055   3.256   0.404 -0.6430  0.1721  0.1699
  129ACOH    H1 9898   7.152   3.296   0.433  0.1484 -0.7680 -1.1200
  129ACOH    H2 9899   7.073   3.149   0.395 -2.6354 -0.1524 -0.1905
  129ACOH    H3 9900   6.981   3.267   0.483  0.2532 -1.5981  1.2823
  130ACOH    H4 9901   5.123   3.290   5.717 -1.1255 -1.9614  0.5206
  130ACOH    O2 9902   5.168   3.272   5.632  0.0851  0.2070  0.6812
  130ACOH    C2 9903   5.294   3.248   5.633 -0.2422 -0.2827  0.8005
  130ACOH    O1 9904   5.345   3.188   5.729 -0.0057 -0.0873  0.6208
  130ACOH    C1 9905   5.369   3.253   5.502 -0.4691 -0.0424 -0.3210
  130ACOH    H1 9906   5.470   3.290   5.517 -0.7047 -0.2724  2.1101
  130ACOH    H2 9907   5.310   3.312   5.432 -0.1812 -1.2115 -1.5534
  130ACOH    H3 9908   5.372   3.157   5.450 -1.1264 -0.8476  1.0813
  131ACOH    H4 9909   5.790   8.921   0.909 -0.9468  1.4125 -1.2093
  131ACOH    O2 9910   5.782   8.993   0.975  0.3344  0.6962 -0.2503
  131ACOH    C2 9911   5.684   8.959   1.064 -0.2407 -0.1757  0.0618
  131ACOH    O1 9912   5.605   8.870   1.044 -0.5844 -0.4607 -0.6878
  131ACOH    C1 9913   5.670   9.069   1.164  0.4009 -0.5162 -0.0875
  131ACOH    H1 9914   5.758   9.129   1.144  1.0619 -1.6065 -0.4380
  131ACOH    H2 9915   5.672   9.031   1.266  0.3040 -0.6705 -0.1421
  131ACOH    H3 9916   5.581   9.124   1.132  1.1069  0.9307  0.4038
  133ACOH    H4 9917   5.113   5.301   1.233  0.7327  1.4076 -0.6344
  133ACOH    O2 9918   5.190   5.251   1.200 -0.1824 -0.6335  0.2205
  133ACOH    C2 9919   5.208   5.284   1.070  0.5553  0.2978  0.1320
  133ACOH    O1 9920   5.212   5.392   1.022  0.4896  0.5353  0.1804
  133ACOH    C1 9921   5.283   5.183   1.001 -0.5679  0.4235  0.4996
  133ACOH    H1 9922   5.252   5.185   0.896 -0.2528  0.3160  0.4037
  133ACOH    H2 9923   5.262   5.082   1.034 -0.6437 -0.7752 -2.9715
  133ACOH    H3 9924   5.390   5.203   1.014  0.3590 -4.0799  0.6428
  134ACOH    H4 9925   6.269   6.635   3.936  1.8153  0.4271  0.0929
  134ACOH    O2 9926   6.280   6.549   3.892 -0.3972 -0.0546  0.4553
  134ACOH    C2 9927   6.392   6.562   3.818  0.2847 -0.5380 -0.0667
  134ACOH    O1 9928   6.457   6.661   3.806 -0.1035 -0.7150 -0.4675
  134ACOH    C1 9929   6.427   6.438   3.752 -0.2704 -0.0369  0.0731
  134ACOH    H1 9930   6.515   6.455   3.689 -0.3212  1.4421  0.3867
  134ACOH    H2 9931   6.345   6.398   3.693 -0.2218 -0.3908  0.2435
  134ACOH    H3 9932   6.453   6.370   3.833 -2.6968 -2.3253 -0.9983
  135ACOH    H4 9933   7.188   3.730   4.722  0.4236  0.4661 -1.2817
  135ACOH    O2 9934   7.204   3.634   4.715  0.2606  0.3273  0.2703
  135ACOH    C2 9935   7.088   3.587   4.659  0.4313  0.0797 -0.5045
  135ACOH    O1 9936   6.996   3.654   4.610 -0.3284  0.9277 -0.7304
  135ACOH    C1 9937   7.084   3.444   4.653 -0.5054  0.8043 -0.1783
  135ACOH    H1 9938   7.171   3.408   4.598 -0.7514  2.2897 -1.5473
  135ACOH    H2 9939   6.998   3.407   4.597  0.4742 -0.7749 -0.6666
  135ACOH    H3 9940   7.082   3.397   4.752  1.4271  1.1621  0.0545
  136ACOH    H4 9941   5.039   2.053   1.623  1.5437 -3.3545 -0.3764
  136ACOH    O2 9942   5.100   2.068   1.697 -0.1209  0.5000  0.3733
  136ACOH    C2 9943   5.144   1.944   1.727 -0.2675 -0.2090  0.0485
  136ACOH    O1 9944   5.107   1.841   1.679  0.3490  0.1560 -0.4515
  136ACOH    C1 9945   5.253   1.939   1.830 -0.7753 -0.1188 -1.0038
  136ACOH    H1 9946   5.199   1.945   1.924  2.6064 -2.1893  1.1823
  136ACOH    H2 9947   5.313   2.030   1.825 -1.6662  0.6617  1.6627
  136ACOH    H3 9948   5.310   1.846   1.825  0.3535  0.3797  1.7587
  138ACOH    H4 9949   2.354   6.478   0.171  1.6243  0.1255 -1.9519
  138ACOH    O2 9950   2.338   6.574   0.163 -0.3830 -0.0334 -0.0795
  138ACOH    C2 9951   2.454   6.640   0.183  0.1445 -0.1512  0.0256
  138ACOH    O1 9952   2.553   6.604   0.238 -0.8876 -0.7105 -0.2420
  138ACOH    C1 9953   2.451   6.771   0.117  1.0614  1.0511 -0.0368
  138ACOH    H1 9954   2.518   6.839   0.170  1.2231 -0.1715  1.3525
  138ACOH    H2 9955   2.353   6.819   0.113 -0.2105 -1.5235 -0.3046
  138ACOH    H3 9956   2.479   6.757   0.012 -2.3798 -0.1677 -0.8646
  139ACOH    H4 9957   9.236   7.285   4.286 -0.0067  0.1175  0.1031
  139ACOH    O2 9958   9.219   7.299   4.191  0.1277  0.1018  0.0754
  139ACOH    C2 9959   9.194   7.430   4.171 -0.1532  0.2755  0.0135
  139ACOH    O1 9960   9.142   7.508   4.248  0.6409 -0.0246 -0.1404
  139ACOH    C1 9961   9.204   7.453   4.025 -0.4645  0.2844 -0.4299
  139ACOH    H1 9962   9.153   7.373   3.971  1.7613 -1.8658  0.5469
  139ACOH    H2 9963   9.308   7.440   3.995 -0.2825  0.7109  0.0133
  139ACOH    H3 9964   9.166   7.551   3.996  1.2990  1.2859  0.5494
  140ACOH    H4 9965   2.728   0.259   1.359  2.1598  0.7142  0.4716
  140ACOH    O2 9966   2.675   0.292   1.434  0.6117  0.0931 -0.3284
  140ACOH    C2 9967   2.561   0.355   1.386  0.4564 -0.2449  0.4571
  140ACOH    O1 9968   2.530   0.369   1.271 -0.2652 -0.8219  0.0118
  140ACOH    C1 9969   2.492   0.438   1.487 -0.2069 -0.1097  0.0139
  140ACOH    H1 9970   2.507   0.539   1.450  0.5335 -0.7505 -1.5061
  140ACOH    H2 9971   2.522   0.429   1.592  0.8945 -0.3851 -0.3097
  140ACOH    H3 9972   2.385   0.416   1.484 -0.3243 -0.0422  2.6617
  141ACOH    H4 9973   3.198   5.121   3.720  0.2092  1.9646  2.7901
  141ACOH    O2 9974   3.290   5.150   3.708  0.3738  0.1119 -0.8354
  141ACOH    C2 9975   3.363   5.057   3.768  0.1038 -0.0602  0.0128
  141ACOH    O1 9976   3.320   4.957   3.826 -0.2067  0.0679 -0.0349
  141ACOH    C1 9977   3.506   5.087   3.738  0.6344  0.1103 -0.4173
  141ACOH    H1 9978   3.572   5.014   3.783  0.7387  0.1535 -0.5022
  141ACOH    H2 9979   3.523   5.188   3.776 -0.2643 -0.1261  0.6649
  141ACOH    H3 9980   3.518   5.077   3.631 -1.5642 -0.0484 -0.6774
  143ACOH    H4 9981   9.205   3.539   3.349 -0.0794 -0.2563 -0.6060
  143ACOH    O2 9982   9.190   3.561   3.256 -0.5537  0.4475 -0.3694
  143ACOH    C2 9983   9.091   3.654   3.261  0.3832 -0.9721 -0.7567
  143ACOH    O1 9984   9.018   3.693   3.351  0.3953 -0.1709  0.1544
  143ACOH    C1 9985   9.070   3.709   3.123  0.2479 -0.3348  0.3894
  143ACOH    H1 9986   9.073   3.624   3.055 -0.9707  0.2347 -0.3776
  143ACOH    H2 9987   9.158   3.772   3.110 -0.9395  1.9812  3.0769
  143ACOH    H3 9988   8.982   3.769   3.105  1.2070  0.4526 -1.8621
  144ACOH    H4 9989   3.320   5.858   0.237  0.6653 -0.7574  0.5510
  144ACOH    O2 9990   3.399   5.913   0.227 -0.2119  0.3902 -0.1700
  144ACOH    C2 9991   3.485   5.832   0.161 -0.3272 -0.1267 -0.1980
  144ACOH    O1 9992   3.459   5.739   0.087 -0.3407 -0.4245 -0.1595
  144ACOH    C1 9993   3.610   5.905   0.149 -0.1428 -0.0041 -0.0986
  144ACOH    H1 9994   3.690   5.832   0.161 -1.3896 -1.1905  1.0310
  144ACOH    H2 9995   3.615   5.970   0.237  0.0845 -0.7054  0.4050
  144ACOH    H3 9996   3.614   5.945   0.048 -0.2817 -0.9060 -0.4630
  145ACOH    H4 9997   5.750   4.555   0.230 -0.8692  0.1867 -0.4601
  145ACOH    O2 9998   5.711   4.602   0.306 -0.3209 -0.1068  0.0013
  145ACOH    C2 9999   5.739   4.531   0.420  0.6124 -0.9046  0.1939
  145ACOH    O110000   5.835   4.460   0.427  0.3963  0.3470  0.3294
  145ACOH    C110001   5.671   4.590   0.538  0.1991  0.1069 -1.1033
  145ACOH    H110002   5.737   4.627   0.616 -1.1479  0.1332  0.0462
  145ACOH    H210003   5.617   4.508   0.586 -0.2134 -0.4424 -2.4652
  145ACOH    H310004   5.598   4.667   0.513 -0.2329  0.6728  1.7292
  146ACOH    H410005   7.429   4.441   4.627  0.9367 -0.1415  0.2970
  146ACOH    O210006   7.468   4.442   4.538  0.3847  0.8192  0.0597
  146ACOH    C210007   7.582   4.511   4.527  0.5166  0.5273  0.2125
  146ACOH    O110008   7.631   4.598   4.601 -0.9762 -0.4100 -0.7184
  146ACOH    C110009   7.655   4.466   4.404  0.7510  0.0911 -0.0347
  146ACOH    H110010   7.593   4.497   4.320 -0.2910  0.3253  0.8103
  146ACOH    H210011   7.657   4.357   4.401 -0.3607 -0.0286  2.0903
  146ACOH    H310012   7.758   4.501   4.412  0.4334  0.7988  1.0165
  148ACOH    H410013   4.952   2.087   0.168  0.8678 -0.9750 -0.8321
  148ACOH    O210014   5.044   2.113   0.184  0.6239 -0.4582 -0.2271
  148ACOH    C210015   5.120   2.025   0.115 -0.2856 -0.1115  0.1084
  148ACOH    O110016   5.079   1.958   0.025 -0.4283  0.0067  0.5993
  148ACOH    C110017   5.266   2.037   0.157 -0.1493 -0.0489  0.0955
  148ACOH    H110018   5.299   1.948   0.210  2.5369  0.1843 -1.1017
  148ACOH    H210019   5.285   2.126   0.217 -1.0892  1.0970 -1.2755
  148ACOH    H310020   5.326   2.051   0.067  0.6175 -1.1229  0.4388
  149ACOH    H410021   7.125   2.678   0.406  1.3331 -0.4998  1.0515
  149ACOH    O210022   7.045   2.706   0.453  0.7566 -0.1278 -0.1225
  149ACOH    C210023   7.064   2.671   0.578 -0.2483  0.0238 -0.0409
  149ACOH    O110024   7.153   2.603   0.622 -0.6182 -0.0338  0.3043
  149ACOH    C110025   6.968   2.743   0.667  0.3896 -0.1829  0.2951
  149ACOH    H110026   7.003   2.761   0.769 -2.0826  2.1511  0.7699
  149ACOH    H210027   6.875   2.685   0.659 -0.0733  0.3843  1.4773
  149ACOH    H310028   6.941   2.838   0.623  2.8410 -0.5749 -2.1287
  150ACOH    H410029   5.162   1.673   4.240 -0.7053 -1.1007 -0.8551
  150ACOH    O210030   5.136   1.747   4.183 -0.0746 -0.1787  0.0385
  150ACOH    C210031   5.251   1.792   4.124  0.4193 -0.1974  0.5343
  150ACOH    O110032   5.358   1.810   4.175  0.3050 -0.4148 -0.4538
  150ACOH    C110033   5.212   1.875   4.002 -0.2560  0.8424 -0.0209
  150ACOH    H110034   5.106   1.870   3.979 -0.3893 -0.5981  0.8901
  150ACOH    H210035   5.272   1.842   3.917 -1.5192 -1.1952 -0.1518
  150ACOH    H310036   5.237   1.979   4.024  1.3852  1.1748 -3.1499
  151ACOH    H410037   1.237   2.290   4.545  0.3073  1.4325  1.8660
  151ACOH    O210038   1.290   2.215   4.578  0.0586  0.4250  0.0586
  151ACOH    C210039   1.203   2.154   4.664 -0.2975  0.4180  0.2246
  151ACOH    O110040   1.101   2.207   4.707  0.0531  0.3461  0.7714
  151ACOH    C110041   1.275   2.042   4.730 -0.4508  0.2839  0.0875
  151ACOH    H110042   1.288   1.951   4.670 -0.3727 -0.1648  0.7788
  151ACOH    H210043   1.203   2.004   4.802 -0.9436  1.4355  0.2082
  151ACOH    H310044   1.360   2.078   4.787  0.6296 -1.8902 -0.0981
  152ACOH    H410045   3.398   5.725   3.612  1.6780 -2.1485 -1.7720
  152ACOH    O210046   3.359   5.672   3.683  0.0299  0.1899 -0.8582
  152ACOH    C210047   3.287   5.565   3.639  0.1481 -0.1268 -0.1648
  152ACOH    O110048   3.246   5.550   3.529  0.1644  0.7975 -0.4031
  152ACOH    C110049   3.249   5.475   3.748  0.5412 -0.9116  0.8123
  152ACOH    H110050   3.339   5.437   3.796  0.7591  1.5556  2.4619
  152ACOH    H210051   3.189   5.392   3.712 -0.8764  1.0696 -1.5792
  152ACOH    H310052   3.195   5.536   3.820  2.1908  1.6299 -0.0175
  153ACOH    H410053   6.585   6.985   4.059 -1.0663  0.2553  2.8248
  153ACOH    O210054   6.633   6.901   4.071 -0.2824  0.4203  0.9640
  153ACOH    C210055   6.554   6.812   4.133 -0.6513  0.0602 -0.2867
  153ACOH    O110056   6.464   6.844   4.205 -0.1419  0.3288 -0.0371
  153ACOH    C110057   6.598   6.671   4.126 -0.2031 -0.2486 -0.1131
  153ACOH    H110058   6.679   6.672   4.053 -0.5384  0.2548 -0.4827
  153ACOH    H210059   6.510   6.611   4.099 -0.5161 -0.4483  1.3347
  153ACOH    H310060   6.644   6.643   4.220  2.2014 -1.2054 -1.5078
  154ACOH    H410061   4.709   4.675   2.175 -0.4929 -1.3546  0.4072
  154ACOH    O210062   4.802   4.695   2.196 -0.5189  0.0152 -0.7084
  154ACOH    C210063   4.837   4.793   2.107 -0.3152  0.1900 -0.3128
  154ACOH    O110064   4.766   4.861   2.043  0.1983 -0.2088 -0.2102
  154ACOH    C110065   4.988   4.797   2.093  0.1730  0.1582 -0.0592
  154ACOH    H110066   5.007   4.705   2.039 -1.9428 -0.4792  0.2400
  154ACOH    H210067   5.047   4.798   2.185 -0.9476  1.6490  0.6726
  154ACOH    H310068   5.013   4.888   2.039 -0.9438  0.6898  0.2994
  155ACOH    H410069   7.293   2.651   2.629 -0.4214  1.3706  0.5357
  155ACOH    O210070   7.243   2.660   2.546 -0.2836 -0.0577  0.2796
  155ACOH    C210071   7.274   2.551   2.472  0.1568  0.0769  0.0963
  155ACOH    O110072   7.354   2.462   2.499  0.3247  0.1864  0.1652
  155ACOH    C110073   7.202   2.549   2.341  0.5191 -0.7254 -0.0085
  155ACOH    H110074   7.253   2.612   2.268  0.1592  1.1290  1.3074
  155ACOH    H210075   7.097   2.577   2.349 -0.4700 -4.3084  0.6697
  155ACOH    H310076   7.201   2.451   2.293 -0.0207  0.0748 -1.6706
  156ACOH    H410077   4.259   3.642   3.206 -2.5267 -0.0072  2.6389
  156ACOH    O210078   4.275   3.737   3.219 -0.4032 -0.0592  0.6099
  156ACOH    C210079   4.171   3.779   3.294  0.0378 -1.0877  0.2346
  156ACOH    O110080   4.070   3.712   3.312 -0.5672 -0.4903  0.0072
  156ACOH    C110081   4.192   3.925   3.317  0.3869 -0.2940 -0.4918
  156ACOH    H110082   4.117   3.964   3.386 -0.0929 -0.0478 -1.1484
  156ACOH    H210083   4.200   3.977   3.222  2.7062  0.4688  0.1061
  156ACOH    H310084   4.287   3.945   3.365 -0.6138 -1.0152  1.8899
  157ACOH    H410085   1.339   5.377   0.200 -0.0541  0.5672  0.0650
  157ACOH    O210086   1.295   5.462   0.214 -0.1912  0.4396  0.4084
  157ACOH    C210087   1.168   5.448   0.194  0.1573 -0.2107 -0.0333
  157ACOH    O110088   1.111   5.344   0.156 -0.3444 -0.5732  0.0303
  157ACOH    C110089   1.104   5.580   0.207 -0.1120 -0.5787 -0.4083
  157ACOH    H110090   1.172   5.647   0.153  0.2743  0.5917  1.4505
  157ACOH    H210091   1.100   5.621   0.308  0.5894  1.7680 -1.2878
  157ACOH    H310092   1.005   5.586   0.161  0.0400  0.0573 -0.6635
  158ACOH    H410093   7.177   2.493   3.104  0.6084  0.7676 -2.2674
  158ACOH    O210094   7.211   2.573   3.149  0.5258 -0.5205  0.2158
  158ACOH    C210095   7.173   2.569   3.277 -0.0579 -0.1241 -0.5182
  158ACOH    O110096   7.120   2.475   3.331  0.1756  0.2177 -0.4905
  158ACOH    C110097   7.216   2.680   3.368 -0.8489  0.1988 -0.7934
  158ACOH    H110098   7.288   2.645   3.443 -0.0079  1.0981 -1.1658
  158ACOH    H210099   7.141   2.738   3.422 -1.4733 -0.0872 -1.3502
  158ACOH    H310100   7.269   2.754   3.307  0.2626 -1.0353 -1.3562
  162ACOH    H410101   4.929   1.071   0.610  2.6243  1.5237  1.3718
  162ACOH    O210102   4.871   1.101   0.682 -0.1930 -0.0469 -0.1607
  162ACOH    C210103   4.847   1.003   0.766  0.6997  0.0132 -0.9159
  162ACOH    O110104   4.774   1.018   0.864  0.6745 -0.1627 -0.3208
  162ACOH    C110105   4.897   0.866   0.736 -0.0105 -0.0021 -0.3624
  162ACOH    H110106   4.916   0.866   0.629 -2.4541 -1.6003 -0.8314
  162ACOH    H210107   4.836   0.781   0.767  1.4095  0.0017  2.5835
  162ACOH    H310108   4.990   0.855   0.791 -0.4568 -0.9640  0.2208
  163ACOH    H410109   7.978   6.135   0.767  2.6352  0.0429 -0.1786
  163ACOH    O210110   7.956   6.112   0.675 -0.3389  0.8641  0.2548
  163ACOH    C210111   8.064   6.161   0.610  0.0356  0.1679  1.0829
  163ACOH    O110112   8.180   6.159   0.648  0.1395 -0.1253 -0.2537
  163ACOH    C110113   8.026   6.177   0.467 -0.8353 -0.4018  0.0889
  163ACOH    H110114   7.937   6.116   0.451 -1.5993  0.8445 -0.4309
  163ACOH    H210115   8.103   6.137   0.401 -0.0527  0.8922  0.2016
  163ACOH    H310116   8.011   6.283   0.448 -3.5884 -0.8013 -0.2216
  164ACOH    H410117   1.077   3.615   4.489 -0.2600 -0.2491 -0.4004
  164ACOH    O210118   1.011   3.674   4.448 -0.4154 -0.4478 -0.4381
  164ACOH    C210119   1.014   3.788   4.517  0.0957 -0.5429  0.3407
  164ACOH    O110120   1.074   3.811   4.618 -0.4992 -0.1004 -0.0795
  164ACOH    C110121   0.954   3.905   4.449 -0.6481 -0.2958  0.6147
  164ACOH    H110122   0.965   3.890   4.341 -3.2867  1.1343  0.1106
  164ACOH    H210123   0.997   4.000   4.480 -1.1967 -0.2420  1.2247
  164ACOH    H310124   0.851   3.895   4.481 -0.5401  0.8509  1.3303
  165ACOH    H410125   8.077   5.354   1.649  1.3778 -1.4384 -1.1000
  165ACOH    O210126   8.026   5.398   1.578 -0.3730 -0.6448  0.5932
  165ACOH    C210127   7.963   5.308   1.506  0.0242 -0.0207 -0.1333
  165ACOH    O110128   7.944   5.194   1.530  0.2120  0.2275  0.1725
  165ACOH    C110129   7.890   5.374   1.390 -0.1451 -0.1854  0.0655
  165ACOH    H110130   7.950   5.462   1.365  0.5735 -0.7366 -0.1763
  165ACOH    H210131   7.794   5.408   1.430  0.3820 -0.1025  1.2962
  165ACOH    H310132   7.867   5.321   1.298  2.3224 -1.0398 -0.1039
  166ACOH    H410133   5.146   8.745   4.509  0.4924 -0.3798 -0.4764
  166ACOH    O210134   5.141   8.681   4.582  0.3075 -0.4409 -0.5419
  166ACOH    C210135   5.073   8.579   4.532 -0.5276 -0.1283  0.5245
  166ACOH    O110136   5.094   8.534   4.419  0.4034  0.3980 -0.4709
  166ACOH    C110137   5.020   8.494   4.637  0.2236 -0.0909 -0.6418
  166ACOH    H110138   5.061   8.393   4.630 -3.9658 -2.0241  0.9223
  166ACOH    H210139   4.912   8.484   4.628  0.1019 -0.8891  1.3811
  166ACOH    H310140   5.045   8.541   4.732 -1.3055 -1.0739  0.2656
  167ACOH    H410141   5.346   9.634   0.931 -0.2096  1.5558 -0.8896
  167ACOH    O210142   5.416   9.665   0.872  0.4575  0.8355 -0.4885
  167ACOH    C210143   5.521   9.682   0.952  0.5726 -0.0244 -0.3636
  167ACOH    O110144   5.533   9.675   1.075 -0.1351 -0.2784  0.0483
  167ACOH    C110145   5.639   9.704   0.863  0.2563  0.1200 -0.2506
  167ACOH    H110146   5.734   9.663   0.895 -0.4410  0.4479  2.3387
  167ACOH    H210147   5.641   9.811   0.841  1.2852 -0.0601 -1.0918
  167ACOH    H310148   5.619   9.659   0.766 -1.3104 -3.2487  1.5660
  168ACOH    H410149   2.440   7.279   4.336  1.9988 -0.1733  1.1341
  168ACOH    O210150   2.495   7.309   4.262  0.2259  0.1113 -0.0855
  168ACOH    C210151   2.581   7.399   4.313  0.5072  0.3116 -1.0775
  168ACOH    O110152   2.551   7.480   4.408  0.2643 -0.1743  0.3360
  168ACOH    C110153   2.702   7.399   4.232 -0.0136 -0.4467 -0.0193
  168ACOH    H110154   2.760   7.308   4.248 -0.7408 -0.3789  3.4384
  168ACOH    H210155   2.758   7.492   4.244 -1.7858  0.7630 -1.0270
  168ACOH    H310156   2.657   7.397   4.133  0.7803  1.2281 -0.4309
  170ACOH    H410157   5.048   3.893   3.501  0.8896 -1.1598  0.1087
  170ACOH    O210158   5.055   3.956   3.575 -0.3476 -1.0620  0.1553
  170ACOH    C210159   4.931   4.001   3.594  0.8540  0.5261  0.4626
  170ACOH    O110160   4.829   3.961   3.536  0.5310 -0.1229 -0.8953
  170ACOH    C110161   4.925   4.093   3.707  1.0778 -0.3840 -0.0562
  170ACOH    H110162   4.864   4.059   3.790  2.1438 -1.2174  0.3881
  170ACOH    H210163   4.892   4.192   3.674  1.9426 -0.2201 -0.4426
  170ACOH    H310164   5.023   4.103   3.752  1.4572  0.7279 -1.0820
  171ACOH    H410165   4.839   2.187   2.217 -0.0724  1.7385 -1.3144
  171ACOH    O210166   4.889   2.183   2.134  0.7352 -0.2041 -0.7631
  171ACOH    C210167   5.011   2.240   2.151  0.1164  0.0870  0.5533
  171ACOH    O110168   5.042   2.303   2.249  0.8633 -0.2362 -0.5087
  171ACOH    C110169   5.109   2.199   2.046  0.0629 -0.4556 -0.1886
  171ACOH    H110170   5.209   2.239   2.055 -1.0707  2.3957  0.2121
  171ACOH    H210171   5.068   2.224   1.948  1.2459 -0.2125 -0.6236
  171ACOH    H310172   5.116   2.090   2.049  1.8689 -0.3141  1.3473
  172ACOH    H410173   7.605   2.897   3.177 -0.6966 -0.8578  1.8186
  172ACOH    O210174   7.545   2.962   3.219 -1.1241  0.2176 -0.3767
  172ACOH    C210175   7.610   3.023   3.320 -0.3212 -0.1368 -0.4649
  172ACOH    O110176   7.701   2.977   3.384  0.0294  0.2219  0.2713
  172ACOH    C110177   7.545   3.154   3.355 -0.3327  0.3015  0.1246
  172ACOH    H110178   7.447   3.136   3.399 -1.1076 -3.3978 -2.7489
  172ACOH    H210179   7.527   3.213   3.265  1.9030  1.4182  0.3960
  172ACOH    H310180   7.614   3.210   3.417 -0.4139  1.0405 -0.4447
  173ACOH    H410181   2.178   1.807   2.251  1.5189  0.3024 -0.3836
  173ACOH    O210182   2.173   1.759   2.167 -0.1023 -0.1769 -0.0216
  173ACOH    C210183   2.260   1.814   2.080  0.2912 -0.6324 -0.1688
  173ACOH    O110184   2.355   1.882   2.106  0.1294 -0.7187  0.3439
  173ACOH    C110185   2.237   1.747   1.951 -0.2123 -0.4204  0.1188
  173ACOH    H110186   2.152   1.787   1.895 -0.5783  0.1371  1.0611
  173ACOH    H210187   2.235   1.639   1.967  0.2991 -0.2836  1.1206
  173ACOH    H310188   2.331   1.766   1.899 -0.6947  1.0586 -0.2403
  174ACOH    H410189   3.127   1.533   2.821 -1.2708  0.1010 -0.2272
  174ACOH    O210190   3.135   1.581   2.737 -0.2479 -0.2843 -0.3678
  174ACOH    C210191   3.006   1.618   2.705 -0.0462  0.3556 -0.2563
  174ACOH    O110192   2.907   1.613   2.775 -0.7211  0.6904 -0.6211
  174ACOH    C110193   3.006   1.697   2.579 -0.7071  0.2698  0.0020
  174ACOH    H110194   2.977   1.799   2.604  1.5699  0.1330  3.5281
  174ACOH    H210195   2.939   1.666   2.498  0.0690 -0.4294 -0.3691
  174ACOH    H310196   3.106   1.701   2.536 -1.1599  1.0988 -1.0249
  175ACOH    H410197   5.827   6.598   3.549  0.0057  0.0504  0.9133
  175ACOH    O210198   5.849   6.549   3.630  0.0625  0.2644  1.0250
  175ACOH    C210199   5.887   6.655   3.709 -0.1180  0.2868  0.4788
  175ACOH    O110200   5.863   6.777   3.702 -0.3495  0.1310 -0.2978
  175ACOH    C110201   5.955   6.606   3.826  0.4485 -0.0457  0.1941
  175ACOH    H110202   6.038   6.540   3.804  1.4912  0.3251  2.7763
  175ACOH    H210203   5.886   6.558   3.895  2.5303  0.5222  2.7635
  175ACOH    H310204   5.998   6.696   3.872  0.1356  1.3727 -2.2150
  176ACOH    H410205   8.362   7.956   1.403 -0.8623  0.1193 -0.1553
  176ACOH    O210206   8.330   8.045   1.422  0.1047  0.4558 -0.0944
  176ACOH    C210207   8.232   8.040   1.512  0.3885  0.4457  0.4273
  176ACOH    O110208   8.198   7.948   1.583  0.6606  0.0930 -0.0661
  176ACOH    C110209   8.170   8.171   1.522 -0.7111 -0.0551 -0.3281
  176ACOH    H110210   8.114   8.192   1.431 -0.7538 -1.3859 -0.6292
  176ACOH    H210211   8.248   8.246   1.530 -0.0101 -0.9233  1.2117
  176ACOH    H310212   8.103   8.177   1.607  1.9365 -1.1784  1.9127
  177ACOH    H410213   7.381   7.079   4.418  0.1530  0.4808  0.2707
  177ACOH    O210214   7.386   7.096   4.513 -0.6023 -0.2396  0.4385
  177ACOH    C210215   7.313   7.207   4.535  0.1446 -0.3017  0.0157
  177ACOH    O110216   7.243   7.270   4.452 -1.0478  0.3922 -0.0666
  177ACOH    C110217   7.303   7.231   4.684 -0.4167 -0.0682 -0.8542
  177ACOH    H110218   7.300   7.138   4.741 -0.2250 -1.5693 -3.2598
  177ACOH    H210219   7.220   7.296   4.715 -0.2639  0.9682 -2.5708
  177ACOH    H310220   7.392   7.289   4.710  1.2275 -2.0627 -1.9439
  178ACOH    H410221   5.388   3.712   1.909 -0.1513  0.6661 -2.3179
  178ACOH    O210222   5.437   3.793   1.932 -0.5750  0.2206  0.2021
  178ACOH    C210223   5.445   3.795   2.063  0.0211 -0.0349 -0.2232
  178ACOH    O110224   5.407   3.718   2.147  0.3300 -0.4699  0.0986
  178ACOH    C110225   5.527   3.909   2.109 -0.4461  0.3961  0.1671
  178ACOH    H110226   5.630   3.876   2.107 -0.4611  0.3596 -2.0647
  178ACOH    H210227   5.503   3.939   2.211 -2.6374  2.1184 -0.8104
  178ACOH    H310228   5.512   3.997   2.046 -0.4660  0.3308  0.0813
  179ACOH    H410229   2.367   8.038   4.126 -0.4348  3.1576  1.6507
  179ACOH    O210230   2.383   7.984   4.205  0.1328 -0.0169 -0.5177
  179ACOH    C210231   2.466   7.885   4.173  0.1929 -0.3946  0.1395
  179ACOH    O110232   2.501   7.857   4.060  0.1283 -0.1126  0.0639
  179ACOH    C110233   2.530   7.823   4.290  0.1122  0.7871 -0.8567
  179ACOH    H110234   2.618   7.764   4.265  0.7248  1.2709  0.1269
  179ACOH    H210235   2.457   7.765   4.346 -0.7418  1.4210 -1.3037
  179ACOH    H310236   2.565   7.898   4.361 -1.8023 -0.0206  0.9836
  180ACOH    H410237   4.998   6.095   1.734 -3.1957 -0.0929 -2.0001
  180ACOH    O210238   5.015   6.003   1.711  0.2576 -0.0211 -0.0373
  180ACOH    C210239   4.920   5.934   1.764  0.1539  0.1358 -0.0680
  180ACOH    O110240   4.826   5.971   1.837  0.4750 -0.5489 -0.1881
  180ACOH    C110241   4.946   5.791   1.734 -0.2302 -0.2183  0.0134
  180ACOH    H110242   4.922   5.772   1.629  3.4109 -2.4396 -0.5415
  180ACOH    H210243   4.877   5.727   1.789 -0.1601  0.1991  0.5940
  180ACOH    H310244   5.049   5.758   1.750  0.3530  1.0592 -1.0560
  181ACOH    H410245   4.312   6.211   2.989  0.4286  1.1124 -1.4670
  181ACOH    O210246   4.328   6.274   3.061 -0.1011  0.3484 -0.6630
  181ACOH    C210247   4.414   6.373   3.026 -0.1886 -0.5851 -0.1075
  181ACOH    O110248   4.463   6.382   2.918  0.4899  0.3341  1.0011
  181ACOH    C110249   4.461   6.447   3.146  0.0819  0.3960  0.7297
  181ACOH    H110250   4.563   6.481   3.127  0.2606 -0.7816 -0.4976
  181ACOH    H210251   4.461   6.376   3.229  2.1236  1.3766  1.6140
  181ACOH    H310252   4.392   6.531   3.159  0.0630  0.4848  0.0418
  182ACOH    H410253   0.213  10.020   0.463  0.1335 -0.4008  0.8534
  182ACOH    O210254   0.146   9.976   0.409  0.2448  0.0575  0.3381
  182ACOH    C210255   0.067   9.906   0.495 -0.0857 -0.6923  0.2384
  182ACOH    O110256   0.107   9.860   0.599 -0.8525 -0.0159  0.1520
  182ACOH    C110257  -0.056   9.865   0.425  0.4721  0.4681  0.1003
  182ACOH    H110258  -0.064   9.899   0.322 -0.3011 -1.5799 -0.5533
  182ACOH    H210259  -0.143   9.903   0.480  0.3227 -0.4159  0.4965
  182ACOH    H310260  -0.047   9.756   0.430  0.4676  0.5492  2.5982
  183ACOH    H410261   6.627   4.385   0.535 -0.8799 -0.3907 -0.1203
  183ACOH    O210262   6.650   4.447   0.606 -0.1603 -0.6834 -0.0852
  183ACOH    C210263   6.609   4.567   0.590 -0.4367  0.4332 -0.2376
  183ACOH    O110264   6.526   4.601   0.507 -0.2162 -0.4009  0.0194
  183ACOH    C110265   6.657   4.643   0.707  0.2071  0.5436  0.1439
  183ACOH    H110266   6.592   4.632   0.794 -0.7254  0.4950 -0.5547
  183ACOH    H210267   6.652   4.747   0.677  0.0905  0.6670  0.5927
  183ACOH    H310268   6.760   4.610   0.720  0.2261  0.8889  0.8524
  184ACOH    H410269   5.519   1.523   4.656  1.2103  0.3426  0.2034
  184ACOH    O210270   5.513   1.608   4.609  0.0625 -0.2306 -0.6999
  184ACOH    C210271   5.378   1.629   4.598  0.4188 -0.3814  0.1611
  184ACOH    O110272   5.284   1.561   4.635  0.3403 -0.0950  0.1155
  184ACOH    C110273   5.352   1.756   4.529 -0.1150 -0.7734 -0.6566
  184ACOH    H110274   5.420   1.772   4.446 -0.1198 -0.4853 -0.6050
  184ACOH    H210275   5.350   1.840   4.597  1.6681 -1.6598  0.5258
  184ACOH    H310276   5.254   1.751   4.480 -1.5948  0.8068  2.0385
  185ACOH    H410277   1.811   9.805   2.829 -1.0108 -0.8516  0.6854
  185ACOH    O210278   1.853   9.745   2.765 -0.3465 -0.0294  0.3401
  185ACOH    C210279   1.881   9.817   2.654  0.0554  0.0449  0.8858
  185ACOH    O110280   1.883   9.937   2.633  1.2454 -0.0727 -0.7639
  185ACOH    C110281   1.879   9.724   2.538  0.0057 -0.5134  0.1026
  185ACOH    H110282   1.872   9.622   2.574  1.1330 -0.7099 -0.2085
  185ACOH    H210283   1.960   9.740   2.467 -0.5822 -0.5141 -0.5828
  185ACOH    H310284   1.786   9.747   2.485  0.8848 -0.3312 -1.4092
  186ACOH    H410285   5.334   6.514   2.402  0.6825 -1.0486  0.4754
  186ACOH    O210286   5.308   6.437   2.348  0.0320 -0.3387 -0.2551
  186ACOH    C210287   5.380   6.459   2.237 -0.0315 -0.0164  0.0326
  186ACOH    O110288   5.483   6.521   2.233 -0.5664 -0.2746  0.4715
  186ACOH    C110289   5.341   6.359   2.132  0.3943 -0.0205 -0.1119
  186ACOH    H110290   5.317   6.266   2.183 -0.9649  0.6389  0.4901
  186ACOH    H210291   5.422   6.348   2.060  0.8268  0.6479  0.2704
  186ACOH    H310292   5.254   6.390   2.074 -1.0381 -2.4568  0.6410
  187ACOH    H410293   7.261   2.083   1.403 -2.0316 -1.4951 -0.8729
  187ACOH    O210294   7.179   2.128   1.428 -0.8890  0.1692 -0.0058
  187ACOH    C210295   7.205   2.222   1.519 -0.0564 -0.2645  0.3148
  187ACOH    O110296   7.311   2.271   1.548 -0.7129 -0.3049 -0.1094
  187ACOH    C110297   7.084   2.298   1.566  0.0496 -0.0284 -0.0109
  187ACOH    H110298   7.021   2.230   1.624 -2.3761  0.9652 -1.4124
  187ACOH    H210299   7.031   2.338   1.480  0.2328 -0.4875 -0.3386
  187ACOH    H310300   7.123   2.385   1.618 -1.4754  0.7928 -0.2119
  189ACOH    H410301   0.598   0.765   4.619 -0.1137 -0.4769  0.9623
  189ACOH    O210302   0.692   0.780   4.640  0.0440  0.1810 -0.1500
  189ACOH    C210303   0.753   0.785   4.522 -0.3170 -0.4466  0.0422
  189ACOH    O110304   0.705   0.758   4.410 -0.0611 -0.1156  0.1657
  189ACOH    C110305   0.894   0.825   4.524  0.3403  0.0436  0.0206
  189ACOH    H110306   0.941   0.818   4.426 -1.2752  1.0361 -0.8658
  189ACOH    H210307   0.939   0.755   4.593  0.1445  1.7410  1.9102
  189ACOH    H310308   0.900   0.926   4.565 -1.0788 -0.0930  0.6030
  190ACOH    H410309   7.728   7.699   1.434  1.1561 -1.2525 -1.1264
  190ACOH    O210310   7.749   7.769   1.370  0.2480  0.1168  0.0606
  190ACOH    C210311   7.884   7.788   1.368 -0.1063 -0.0793  0.1657
  190ACOH    O110312   7.963   7.714   1.423 -0.2230 -1.1382 -0.2810
  190ACOH    C110313   7.940   7.910   1.296 -0.0406 -0.2195  0.5404
  190ACOH    H110314   8.040   7.882   1.263 -0.3835  0.0099 -0.6973
  190ACOH    H210315   7.950   7.996   1.363  2.2666  0.7074 -0.9534
  190ACOH    H310316   7.884   7.925   1.204  0.9218 -1.0035 -0.1855
  191ACOH    H410317   3.629   4.904   2.804  2.5800 -1.4656  1.6246
  191ACOH    O210318   3.647   4.997   2.829 -0.4414 -0.2597 -0.2788
  191ACOH    C210319   3.786   5.003   2.814  0.0798 -0.0072  0.7961
  191ACOH    O110320   3.854   4.919   2.757  0.3640 -0.5334  0.0883
  191ACOH    C110321   3.844   5.137   2.861  0.5467 -0.4861  0.4418
  191ACOH    H110322   3.953   5.135   2.856  0.5282  1.2469 -1.6689
  191ACOH    H210323   3.808   5.152   2.962 -0.2065  0.6102  0.0252
  191ACOH    H310324   3.807   5.213   2.791  2.4759 -0.6682 -0.8171
  193ACOH    H410325   1.934   0.864   2.072  1.8776  3.7135  0.2577
  193ACOH    O210326   2.002   0.813   2.119 -0.9811 -0.6234 -0.0371
  193ACOH    C210327   1.943   0.715   2.181  0.3004  0.3590 -0.0411
  193ACOH    O110328   1.826   0.711   2.205  0.2144 -0.3843  0.0048
  193ACOH    C110329   2.039   0.614   2.248 -0.3340 -0.7194 -0.0823
  193ACOH    H110330   2.053   0.644   2.352 -0.4586 -1.2845  0.1010
  193ACOH    H210331   2.135   0.609   2.197 -0.8289  1.3427 -1.2887
  193ACOH    H310332   1.991   0.517   2.256 -2.2055  0.2748  1.0567
  194ACOH    H410333   4.702   4.285   2.588  1.3266  0.7207 -1.4382
  194ACOH    O210334   4.663   4.372   2.609 -0.1234 -0.2882  0.1458
  194ACOH    C210335   4.693   4.450   2.499 -0.2329 -0.4740 -0.0437
  194ACOH    O110336   4.776   4.432   2.416 -0.4556  0.0299  0.2836
  194ACOH    C110337   4.611   4.571   2.479  0.3200 -0.0372 -0.1421
  194ACOH    H110338   4.532   4.542   2.410  0.2433 -0.1770  0.0034
  194ACOH    H210339   4.666   4.656   2.438  0.8379  0.5007  1.5959
  194ACOH    H310340   4.564   4.595   2.575  1.5554 -0.0177  0.4708
  195ACOH    H410341   7.914   3.884   2.034 -1.2625  0.9847  0.7503
  195ACOH    O210342   7.875   3.918   1.952 -0.0549  0.1873 -0.1796
  195ACOH    C210343   7.897   4.048   1.954 -0.9205  0.1908 -0.4250
  195ACOH    O110344   7.967   4.109   2.037  0.5715 -0.2414  0.1336
  195ACOH    C110345   7.844   4.120   1.837  0.3535  0.1901  0.4250
  195ACOH    H110346   7.896   4.099   1.743 -0.2222 -0.3816  0.2289
  195ACOH    H210347   7.856   4.228   1.848  0.8445  0.0899  0.8738
  195ACOH    H310348   7.738   4.096   1.827  0.1992  0.6125  1.0506
  196ACOH    H410349   0.874   4.342   2.832 -1.8174  1.0620  1.1893
  196ACOH    O210350   0.909   4.308   2.916 -0.0659  0.4101  0.2397
  196ACOH    C210351   0.801   4.280   2.992 -0.0926 -0.3936  0.5522
  196ACOH    O110352   0.692   4.257   2.940 -0.1022  0.2287  0.0195
  196ACOH    C110353   0.841   4.256   3.135  0.1522  0.1923 -0.5438
  196ACOH    H110354   0.883   4.346   3.180  2.0719  0.5668 -2.9944
  196ACOH    H210355   0.914   4.176   3.135  1.7727  1.6189  0.8397
  196ACOH    H310356   0.752   4.223   3.190  1.2789 -1.4817  0.3197
  197ACOH    H410357   8.410   8.167   3.722 -1.3924 -3.4027  1.4271
  197ACOH    O210358   8.478   8.169   3.791 -0.0892  0.1742  0.1513
  197ACOH    C210359   8.601   8.163   3.737  0.2722 -0.0502  0.0380
  197ACOH    O110360   8.629   8.188   3.622 -0.3818  0.6601 -0.2010
  197ACOH    C110361   8.708   8.150   3.843 -0.1422  0.1818 -0.1189
  197ACOH    H110362   8.658   8.127   3.937 -0.6294 -2.9863 -1.0850
  197ACOH    H210363   8.778   8.233   3.844 -0.2906  0.2938  1.3507
  197ACOH    H310364   8.764   8.060   3.816 -1.2446  0.4267 -3.4640
  198ACOH    H410365   5.721   0.096   0.596 -1.2129  1.1199 -0.9363
  198ACOH    O210366   5.659   0.023   0.580  0.1471 -0.2530 -0.0588
  198ACOH    C210367   5.538   0.045   0.639  0.3066 -0.1280  0.6103
  198ACOH    O110368   5.496   0.145   0.690  0.0160 -0.5186 -0.5620
  198ACOH    C110369   5.454  -0.077   0.630  0.2284 -0.5676  0.4541
  198ACOH    H110370   5.475  -0.134   0.540 -0.9518 -1.8349  0.9607
  198ACOH    H210371   5.350  -0.044   0.637  0.7264  0.8210  1.7435
  198ACOH    H310372   5.467  -0.137   0.720 -0.7489  0.2854  1.1817
  199ACOH    H410373   4.412   5.498   0.663  0.3566  0.8918  3.9993
  199ACOH    O210374   4.450   5.587   0.654  0.0622  0.6844  0.0029
  199ACOH    C210375   4.577   5.574   0.690 -0.5859 -0.1148  0.4188
  199ACOH    O110376   4.626   5.488   0.759  0.0848  0.4026  0.3565
  199ACOH    C110377   4.650   5.701   0.660  0.1307  0.3353  1.0609
  199ACOH    H110378   4.595   5.751   0.581  0.6939 -2.4717 -1.1839
  199ACOH    H210379   4.744   5.668   0.615 -0.9272 -0.3921 -0.6829
  199ACOH    H310380   4.674   5.754   0.752  1.8450  0.3458  0.6278
  200ACOH    H410381   5.160   6.598   3.557 -0.3871  0.9122 -0.9438
  200ACOH    O210382   5.088   6.590   3.622  0.2509  0.2438 -0.3087
  200ACOH    C210383   4.970   6.629   3.578 -0.7692 -0.2269 -0.4428
  200ACOH    O110384   4.946   6.657   3.461  0.1477  0.3985 -0.0925
  200ACOH    C110385   4.867   6.654   3.685 -0.6354 -0.7592  0.1948
  200ACOH    H110386   4.849   6.761   3.700  1.0766 -0.3448 -0.6217
  200ACOH    H210387   4.918   6.630   3.779 -2.6401 -0.2247  1.4662
  200ACOH    H310388   4.780   6.590   3.672 -0.5467 -0.8259 -0.0666
  201ACOH    H410389   6.516   7.706   1.671 -2.5541  0.1708  0.4271
  201ACOH    O210390   6.491   7.645   1.599  0.4037 -0.7872  0.1343
  201ACOH    C210391   6.588   7.555   1.593 -0.0813 -0.1667  0.7486
  201ACOH    O110392   6.700   7.584   1.629 -0.3158 -0.3619  0.3601
  201ACOH    C110393   6.563   7.434   1.506 -0.4796  0.4303  0.4860
  201ACOH    H110394   6.613   7.445   1.410  1.7159 -0.6624  1.4759
  201ACOH    H210395   6.455   7.423   1.493 -0.5900  0.3644  1.4659
  201ACOH    H310396   6.592   7.337   1.548 -1.9567 -1.2486 -2.1951
  203ACOH    H410397   7.145   4.489   0.405 -0.3477 -1.7502  1.5492
  203ACOH    O210398   7.141   4.549   0.481 -0.3528  0.0897  0.1222
  203ACOH    C210399   7.036   4.628   0.460 -0.6641 -0.0198  0.2068
  203ACOH    O110400   6.947   4.617   0.376  0.5181 -0.4361  0.1293
  203ACOH    C110401   7.040   4.732   0.563 -0.7083 -0.5867 -0.4814
  203ACOH    H110402   6.959   4.799   0.533  0.4613  1.3629  0.5781
  203ACOH    H210403   7.133   4.785   0.539 -1.2480  1.1180  1.0680
  203ACOH    H310404   7.032   4.695   0.665 -1.5489 -0.8951 -0.6622
  204ACOH    H410405   1.976   9.599   2.000  1.2300  0.6290 -1.5679
  204ACOH    O210406   2.064   9.557   2.003  0.7229 -0.3520 -0.0860
  204ACOH    C210407   2.080   9.506   1.877  0.1584  0.0093  0.0733
  204ACOH    O110408   1.999   9.496   1.784  1.0817  0.2941 -0.1530
  204ACOH    C110409   2.203   9.426   1.878 -0.0672  0.0742 -0.1067
  204ACOH    H110410   2.275   9.463   1.805 -2.0754  2.1630 -1.1080
  204ACOH    H210411   2.183   9.321   1.859 -3.9502 -0.1824  4.6004
  204ACOH    H310412   2.246   9.429   1.978 -1.5585  0.1258  0.5443
  205ACOH    H410413   7.694   5.289   0.741 -0.4605  0.9338  0.4760
  205ACOH    O210414   7.625   5.299   0.672 -0.4991  0.4245  0.4401
  205ACOH    C210415   7.523   5.229   0.718 -0.3014  0.0982  0.6545
  205ACOH    O110416   7.525   5.149   0.812 -0.6500 -0.4783 -0.1132
  205ACOH    C110417   7.400   5.253   0.638 -0.5938 -0.1166 -0.8455
  205ACOH    H110418   7.364   5.355   0.654 -1.6547 -0.6184  0.0257
  205ACOH    H210419   7.323   5.181   0.666 -0.8447  0.4534 -0.0402
  205ACOH    H310420   7.422   5.232   0.534 -2.1470 -3.2480 -0.5937
  206ACOH    H410421   6.179   4.225   0.115 -0.5524 -0.7613  1.7003
  206ACOH    O210422   6.158   4.305   0.166  0.4539  0.4816  0.1710
  206ACOH    C210423   6.256   4.305   0.264 -0.1977  0.4502 -0.9336
  206ACOH    O110424   6.363   4.252   0.265  0.3571 -0.1242 -0.9007
  206ACOH    C110425   6.226   4.422   0.351  1.1022 -0.5965  0.0736
  206ACOH    H110426   6.182   4.410   0.449  0.0705 -0.5794 -0.3813
  206ACOH    H210427   6.158   4.486   0.294  4.8828  3.1624 -0.5166
  206ACOH    H310428   6.318   4.479   0.368  1.4806 -1.0987 -0.2755
  207ACOH    H410429   5.858   4.197   0.056 -3.4131 -0.5348 -0.5431
  207ACOH    O210430   5.867   4.246  -0.027 -0.1195  0.4013  0.2879
  207ACOH    C210431   5.885   4.369   0.016  0.6058  0.3187  0.9587
  207ACOH    O110432   5.820   4.436   0.097 -0.7660  0.9896  0.0989
  207ACOH    C110433   5.977   4.445  -0.076  0.2063  0.5023 -0.5276
  207ACOH    H110434   5.910   4.498  -0.143 -1.4146  0.9779  1.4232
  207ACOH    H210435   6.042   4.381  -0.136 -0.7032 -0.3814 -0.5683
  207ACOH    H310436   6.044   4.515  -0.026 -2.2793  1.5822  1.3800
  208ACOH    H410437   6.204   7.669   1.756  1.5822 -1.0524 -2.1094
  208ACOH    O210438   6.246   7.590   1.792  0.3454 -0.7896  0.0265
  208ACOH    C210439   6.222   7.496   1.695  0.0365  0.6334  0.7630
  208ACOH    O110440   6.208   7.510   1.570  0.1776  0.1610  0.0984
  208ACOH    C110441   6.253   7.370   1.760  0.8750  0.3096  0.4656
  208ACOH    H110442   6.228   7.367   1.866 -1.7708 -1.5011 -0.1538
  208ACOH    H210443   6.358   7.348   1.743 -0.2156 -3.3104 -2.0780
  208ACOH    H310444   6.201   7.286   1.714  1.6435 -0.8176  1.6415
  210ACOH    H410445   6.593   3.890   0.301  0.2929 -0.5019 -0.0090
  210ACOH    O210446   6.634   3.842   0.374  0.2336 -0.2876  0.1647
  210ACOH    C210447   6.741   3.786   0.315  0.3903 -0.1263 -1.1508
  210ACOH    O110448   6.805   3.834   0.221  0.4358 -0.6523 -0.1134
  210ACOH    C110449   6.808   3.704   0.416 -0.2833 -0.4704 -0.2034
  210ACOH    H110450   6.748   3.695   0.506 -0.9351  3.5537 -0.1452
  210ACOH    H210451   6.897   3.763   0.440 -0.0459  0.1456 -2.4474
  210ACOH    H310452   6.852   3.607   0.388  0.8705  0.4324 -1.6552
  212ACOH    H410453   1.130   6.889   4.044  0.3667  1.6261 -1.1373
  212ACOH    O210454   1.160   6.927   4.129 -0.1697 -0.2490 -0.0731
  212ACOH    C210455   1.129   7.057   4.117  0.0100  0.1929 -0.2769
  212ACOH    O110456   1.062   7.107   4.026  0.1025 -0.1725 -0.7964
  212ACOH    C110457   1.155   7.127   4.242 -0.3167 -0.3887 -0.0500
  212ACOH    H110458   1.263   7.142   4.249 -0.7867  3.7057 -0.0108
  212ACOH    H210459   1.125   7.065   4.326  0.9502 -0.3086  0.4701
  212ACOH    H310460   1.109   7.226   4.249  2.4424  1.1475 -2.5225
  213ACOH    H410461   4.721   7.516   4.524 -0.1301 -0.0722 -0.1725
  213ACOH    O210462   4.779   7.442   4.549 -0.1914  0.2239  0.8471
  213ACOH    C210463   4.700   7.341   4.574  0.2282  0.4805 -0.1955
  213ACOH    O110464   4.577   7.339   4.564  0.0985 -0.5424  0.9601
  213ACOH    C110465   4.772   7.226   4.638  0.2847 -0.4935  0.2309
  213ACOH    H110466   4.869   7.216   4.591  0.6868 -1.1202  1.1687
  213ACOH    H210467   4.712   7.138   4.614 -0.0393  0.2925 -1.9261
  213ACOH    H310468   4.778   7.231   4.747 -0.8064  0.4062  0.2624
  214ACOH    H410469   7.077   0.743   1.378  0.1651  1.1330 -0.6347
  214ACOH    O210470   7.170   0.717   1.371 -0.1685 -0.3214  0.1317
  214ACOH    C210471   7.235   0.789   1.464  0.4084 -0.1637 -0.6844
  214ACOH    O110472   7.194   0.898   1.490  0.6583 -0.4653 -0.0549
  214ACOH    C110473   7.368   0.731   1.491 -0.2719 -0.9409 -0.2525
  214ACOH    H110474   7.362   0.622   1.498 -0.3601 -0.8409  1.5380
  214ACOH    H210475   7.418   0.769   1.581 -0.1567 -1.4761 -0.0838
  214ACOH    H310476   7.424   0.755   1.400 -1.2763 -0.6168 -0.7836
  215ACOH    H410477   3.162   2.375   3.885  0.1162  1.9398  0.9798
  215ACOH    O210478   3.067   2.387   3.904 -0.3042  0.8373 -0.3461
  215ACOH    C210479   3.014   2.266   3.916 -0.8892  0.4178  0.3822
  215ACOH    O110480   3.070   2.171   3.971 -0.0284  0.4000  0.4607
  215ACOH    C110481   2.870   2.268   3.882  0.2899  0.3689 -0.1982
  215ACOH    H110482   2.844   2.354   3.821 -1.3410 -0.5493 -0.8394
  215ACOH    H210483   2.813   2.268   3.975  0.3257 -1.2032 -0.1621
  215ACOH    H310484   2.855   2.184   3.815  3.7222 -0.3795 -0.1348
  217ACOH    H410485   4.898   8.728   1.108  1.8725  0.2312 -0.2402
  217ACOH    O210486   4.893   8.735   1.011  0.5297 -0.4101 -0.2340
  217ACOH    C210487   4.815   8.640   0.970  0.4231  0.7356 -0.2009
  217ACOH    O110488   4.764   8.546   1.032  0.3797 -0.0300  0.0078
  217ACOH    C110489   4.788   8.633   0.824  0.1299 -0.2165 -0.5704
  217ACOH    H110490   4.881   8.662   0.776  0.0835  0.0553 -0.4955
  217ACOH    H210491   4.720   8.711   0.792  0.4299 -0.1510 -1.0549
  217ACOH    H310492   4.762   8.531   0.795  1.8852 -0.3598 -1.6868
  218ACOH    H410493   4.864   0.019   0.357 -0.5776 -2.1124  2.0909
  218ACOH    O210494   4.837  -0.036   0.282  0.1744  0.4277 -0.1460
  218ACOH    C210495   4.811   0.054   0.189 -0.3591  0.3398  0.0954
  218ACOH    O110496   4.848   0.171   0.178  0.0036  0.0728  0.0796
  218ACOH    C110497   4.745  -0.014   0.075  0.0828 -0.0227 -0.5383
  218ACOH    H110498   4.696  -0.103   0.113 -0.2649  0.9590  1.3814
  218ACOH    H210499   4.813  -0.036  -0.008  1.3723  1.7803  0.0037
  218ACOH    H310500   4.670   0.053   0.033  0.4515  1.1175  0.5956
  219ACOH    H410501   7.837   8.698   0.629  2.7362 -0.8298  1.2269
  219ACOH    O210502   7.839   8.619   0.572  0.2634 -0.1858  0.2076
  219ACOH    C210503   7.834   8.513   0.651 -0.1281  0.3400 -0.0506
  219ACOH    O110504   7.852   8.506   0.770  0.0737 -0.1192 -0.7611
  219ACOH    C110505   7.821   8.384   0.574 -0.4044  0.0530  0.2968
  219ACOH    H110506   7.888   8.379   0.488  0.9668  2.6637  1.1290
  219ACOH    H210507   7.717   8.366   0.546 -0.5393  0.8128  0.2953
  219ACOH    H310508   7.850   8.303   0.641 -3.0033  2.0513  4.0442
  220ACOH    H410509   2.666   2.174   4.442 -0.1634 -1.4667  1.9502
  220ACOH    O210510   2.600   2.102   4.435 -0.9623 -0.5379 -0.2110
  220ACOH    C210511   2.631   2.017   4.529  0.0968  0.3366 -0.4125
  220ACOH    O110512   2.735   2.002   4.590  0.3927  0.3373  0.4519
  220ACOH    C110513   2.502   1.936   4.543 -0.4282 -0.0870 -0.7951
  220ACOH    H110514   2.492   1.878   4.636 -1.9433  0.0310 -0.8701
  220ACOH    H210515   2.496   1.861   4.464 -0.3526 -0.4325 -0.4759
  220ACOH    H310516   2.412   1.996   4.536  0.5217  1.6127  0.8171
  221ACOH    H410517   6.161   8.857   4.679  0.9096  1.9019 -1.1777
  221ACOH    O210518   6.245   8.811   4.657  0.3557  0.2627  0.0264
  221ACOH    C210519   6.239   8.715   4.562  0.7847  0.1676  0.2531
  221ACOH    O110520   6.148   8.705   4.478 -0.7519 -0.1758 -0.3539
  221ACOH    C110521   6.376   8.668   4.534  0.1406 -0.2377  0.1841
  221ACOH    H110522   6.389   8.595   4.454 -0.1685 -0.7671  0.6109
  221ACOH    H210523   6.418   8.616   4.620 -0.8368 -1.2916  0.0340
  221ACOH    H310524   6.437   8.754   4.507  0.7993 -0.8244 -0.2487
  222ACOH    H410525   5.138   5.493   1.711  0.8992 -0.8474  0.4136
  222ACOH    O210526   5.225   5.535   1.711  0.5648 -0.1469 -0.3935
  222ACOH    C210527   5.222   5.615   1.602  0.1429  0.5168 -0.1932
  222ACOH    O110528   5.161   5.599   1.499 -0.2234 -0.2503 -0.4173
  222ACOH    C110529   5.330   5.720   1.605  0.4232 -0.3638  0.3258
  222ACOH    H110530   5.426   5.676   1.575  0.1128 -0.6409 -0.2824
  222ACOH    H210531   5.342   5.759   1.706  2.8687 -0.7813  0.2309
  222ACOH    H310532   5.320   5.800   1.532  1.6688 -1.6087 -1.2649
  223ACOH    H410533   9.496   1.949   1.993  1.9838 -1.2677 -0.9754
  223ACOH    O210534   9.470   1.856   2.002  0.4582 -0.7175  0.3706
  223ACOH    C210535   9.478   1.778   1.891  0.1885 -0.1724  0.2716
  223ACOH    O110536   9.533   1.813   1.789  0.8792 -0.1304 -0.6599
  223ACOH    C110537   9.403   1.654   1.920  0.7177 -0.0641  0.2543
  223ACOH    H110538   9.396   1.584   1.837  4.0603 -0.8272  0.5648
  223ACOH    H210539   9.302   1.678   1.952  1.5839  0.1813  2.8536
  223ACOH    H310540   9.450   1.600   2.001 -1.7002 -0.5017  1.4022
  224ACOH    H410541   0.220   0.230   0.185  1.5151 -1.5792 -0.0852
  224ACOH    O210542   0.159   0.155   0.187 -0.3029 -0.1232 -0.3105
  224ACOH    C210543   0.234   0.054   0.138  0.4846  0.3059  0.3152
  224ACOH    O110544   0.353   0.050   0.133  0.4601  0.2871  0.0912
  224ACOH    C110545   0.159  -0.060   0.089 -0.5860 -0.1561  0.2419
  224ACOH    H110546   0.225  -0.147   0.094 -2.4295 -1.5561  0.6135
  224ACOH    H210547   0.115  -0.055  -0.010 -0.1968  0.1847  0.0866
  224ACOH    H310548   0.078  -0.078   0.160  0.5137  0.3222  1.6503
  225ACOH    H410549   2.584   4.707   3.941  0.5014 -0.7638 -0.5323
  225ACOH    O210550   2.663   4.740   3.986  0.1084  0.0240 -0.4037
  225ACOH    C210551   2.629   4.793   4.106 -1.0519 -0.7809  0.1842
  225ACOH    O110552   2.516   4.821   4.149  0.2686 -0.0893  0.1488
  225ACOH    C110553   2.746   4.843   4.185 -0.0066 -0.4967  0.5369
  225ACOH    H110554   2.719   4.886   4.281 -1.9457 -1.0771  0.2740
  225ACOH    H210555   2.809   4.909   4.124  0.1408 -0.3991  0.7974
  225ACOH    H310556   2.811   4.761   4.212  0.8040 -0.9297 -2.4995
  226ACOH    H410557   7.996   9.020   2.761 -0.3417  2.4706  0.7795
  226ACOH    O210558   8.004   8.989   2.853 -0.3139  0.1178  0.0107
  226ACOH    C210559   7.917   8.891   2.863 -0.3212 -0.2442 -0.1914
  226ACOH    O110560   7.895   8.797   2.787 -0.3674  0.4141 -0.1888
  226ACOH    C110561   7.873   8.880   3.004 -0.1069  1.1992 -0.5100
  226ACOH    H110562   7.871   8.971   3.063 -1.5613  1.1656 -0.4676
  226ACOH    H210563   7.940   8.810   3.053  0.0911  0.9238 -1.1670
  226ACOH    H310564   7.769   8.846   3.001 -0.5823  2.4346  1.2382
  227ACOH    H410565   5.676   7.286   1.577 -1.1067 -0.6738  2.0387
  227ACOH    O210566   5.688   7.190   1.586  0.1239 -0.7220  0.2495
  227ACOH    C210567   5.794   7.172   1.664 -1.5288 -0.1846  0.3656
  227ACOH    O110568   5.856   7.262   1.718  0.1963  0.5856 -0.3714
  227ACOH    C110569   5.820   7.030   1.694  0.5022  0.3993  0.2454
  227ACOH    H110570   5.765   6.964   1.627  2.8489 -1.4376  0.0474
  227ACOH    H210571   5.787   7.004   1.794 -1.1329  3.3825  0.5349
  227ACOH    H310572   5.926   7.006   1.680  0.3832 -1.5329  2.3858
  228ACOH    H410573   8.497   5.817   4.159  1.6852  0.7087  1.2288
  228ACOH    O210574   8.569   5.777   4.106  0.3567  0.0175 -0.1014
  228ACOH    C210575   8.505   5.699   4.016 -0.1829  0.1035  1.0263
  228ACOH    O110576   8.392   5.671   4.013  0.3437  0.1148  0.2862
  228ACOH    C110577   8.593   5.660   3.909  0.3999  0.7853  0.2122
  228ACOH    H110578   8.568   5.562   3.867  0.2441  0.4117  1.1573
  228ACOH    H210579   8.693   5.655   3.950  0.8614  1.4786 -0.8249
  228ACOH    H310580   8.580   5.732   3.828  1.3848 -0.2656 -0.8991
  229ACOH    H410581   2.219   2.095   3.651 -1.9499  1.5528 -1.6786
  229ACOH    O210582   2.175   2.123   3.733  0.0955 -0.5630  0.2050
  229ACOH    C210583   2.235   2.041   3.823 -0.2631  0.2007  0.1235
  229ACOH    O110584   2.323   1.959   3.814  0.1350  0.1150  0.3945
  229ACOH    C110585   2.168   2.066   3.951 -0.0562  0.4375 -0.2854
  229ACOH    H110586   2.192   1.988   4.023 -0.4810  2.1420  1.7548
  229ACOH    H210587   2.060   2.073   3.937 -0.0118 -0.3176 -1.0597
  229ACOH    H310588   2.217   2.155   3.989  1.0687  0.1029 -0.9573
  232ACOH    H410589   2.068   0.735   4.136  0.7407  0.5698 -2.6442
  232ACOH    O210590   2.007   0.670   4.097  0.1729 -0.4381 -0.1790
  232ACOH    C210591   1.953   0.717   3.982  0.4506 -0.0521 -0.5986
  232ACOH    O110592   1.993   0.814   3.923  0.7257 -0.1302  0.0629
  232ACOH    C110593   1.870   0.618   3.909 -0.1997 -0.2497  0.3158
  232ACOH    H110594   1.846   0.533   3.972 -0.9142  0.4703  1.0417
  232ACOH    H210595   1.916   0.574   3.821 -1.1394 -1.8673  0.6031
  232ACOH    H310596   1.780   0.668   3.873  0.1785 -0.7074 -1.2704
  233ACOH    H410597   6.478   1.755   2.985  0.0886 -1.7510 -0.7188
  233ACOH    O210598   6.390   1.745   2.946 -0.4263  0.2444 -0.1446
  233ACOH    C210599   6.320   1.680   3.036  0.4854 -0.0314 -0.7292
  233ACOH    O110600   6.348   1.654   3.151  0.0626  0.1432 -0.5961
  233ACOH    C110601   6.178   1.661   2.990  0.4069 -0.3204  0.5194
  233ACOH    H110602   6.187   1.615   2.892  1.2803 -1.0863  0.9557
  233ACOH    H210603   6.122   1.755   2.990  2.0438  0.6984  0.9638
  233ACOH    H310604   6.129   1.596   3.062 -1.4565  2.6883  2.0698
  234ACOH    H410605   4.839   1.684   0.231  2.1810 -0.6964 -1.7208
  234ACOH    O210606   4.906   1.678   0.302  0.2859  0.0788  0.1714
  234ACOH    C210607   4.865   1.768   0.398  0.4631  0.3498  0.4068
  234ACOH    O110608   4.786   1.858   0.379  0.2462 -0.1461  0.0419
  234ACOH    C110609   4.968   1.762   0.500  0.6484 -0.1086  0.0124
  234ACOH    H110610   4.998   1.865   0.522  0.5327 -0.2144  0.6965
  234ACOH    H210611   5.056   1.702   0.475  0.4884 -0.6651  0.7531
  234ACOH    H310612   4.931   1.721   0.594 -1.6320 -0.0652 -0.8398
  235ACOH    H410613   7.971   7.305   4.314 -0.8930 -0.3912  0.2991
  235ACOH    O210614   7.942   7.318   4.406  0.0082 -0.4614  0.5978
  235ACOH    C210615   7.816   7.274   4.410  0.5586  0.5830  1.3485
  235ACOH    O110616   7.775   7.207   4.316 -0.4284 -0.3439 -0.3246
  235ACOH    C110617   7.733   7.309   4.526  0.4401 -0.6485 -0.3142
  235ACOH    H110618   7.629   7.297   4.496 -0.2397 -0.2568  1.7856
  235ACOH    H210619   7.751   7.408   4.566  1.4277 -0.4448 -1.2589
  235ACOH    H310620   7.751   7.233   4.602 -1.1343  0.5339  1.2852
  236ACOH    H410621   4.219   4.600   0.330 -1.9260  1.2020  0.7125
  236ACOH    O210622   4.163   4.605   0.251 -0.0864  0.5018 -0.6762
  236ACOH    C210623   4.047   4.539   0.282 -0.5241 -0.5202 -0.4108
  236ACOH    O110624   4.008   4.509   0.396  0.3220 -0.1345 -0.3863
  236ACOH    C110625   3.952   4.537   0.174  0.9278 -0.0335  0.6326
  236ACOH    H110626   3.849   4.525   0.208  1.2205 -1.8006  0.9463
  236ACOH    H210627   3.981   4.466   0.096  1.7052 -1.2543  2.0153
  236ACOH    H310628   3.963   4.628   0.115  1.3227  1.4250  2.8914
  237ACOH    H410629   5.183   3.121   1.015 -1.7677  1.1870 -1.2453
  237ACOH    O210630   5.195   3.188   1.085  0.0951 -0.3138 -0.0743
  237ACOH    C210631   5.132   3.137   1.194 -0.5965 -0.1524 -0.7546
  237ACOH    O110632   5.094   3.020   1.203 -0.0727  0.0681 -0.4110
  237ACOH    C110633   5.116   3.224   1.308  0.4801 -0.2125 -0.0945
  237ACOH    H110634   5.056   3.178   1.387  2.3372  0.1153  1.5481
  237ACOH    H210635   5.070   3.320   1.284  0.9703 -0.0343 -0.3278
  237ACOH    H310636   5.214   3.250   1.348  0.0184  1.4781 -0.0304
  238ACOH    H410637   4.683   8.187   0.596  0.5126 -0.2972  0.9714
  238ACOH    O210638   4.737   8.241   0.536 -0.0799 -0.6104  0.1456
  238ACOH    C210639   4.825   8.305   0.619  0.0875  0.0575 -0.6925
  238ACOH    O110640   4.829   8.296   0.740 -0.0922  0.3845 -0.1852
  238ACOH    C110641   4.924   8.396   0.545 -0.1796  0.1945  0.2438
  238ACOH    H110642   4.967   8.468   0.614  0.0216 -2.1403  2.6090
  238ACOH    H210643   4.867   8.427   0.457  0.9888  0.8255 -0.2986
  238ACOH    H310644   5.012   8.342   0.511 -0.7540  0.2244 -1.3278
  239ACOH    H410645   7.330   6.741   2.080  0.4946  0.0550  1.5276
  239ACOH    O210646   7.264   6.673   2.102  0.0470 -0.0582 -0.0879
  239ACOH    C210647   7.339   6.567   2.138 -0.0857 -0.2896 -0.1688
  239ACOH    O110648   7.461   6.568   2.145  0.0614  1.2239  0.0656
  239ACOH    C110649   7.266   6.445   2.175 -0.0212 -0.2743  0.4061
  239ACOH    H110650   7.171   6.472   2.222  0.2118  0.7402  0.3141
  239ACOH    H210651   7.323   6.385   2.246  0.0976  0.5740  1.0415
  239ACOH    H310652   7.243   6.394   2.082 -1.5279  1.2918 -0.1132
  240ACOH    H410653   4.644   3.814   3.833 -0.3548 -1.0778 -3.7202
  240ACOH    O210654   4.729   3.858   3.819 -0.0359 -0.1804  0.4103
  240ACOH    C210655   4.808   3.749   3.816  0.2537  0.4871  0.4411
  240ACOH    O110656   4.781   3.631   3.818  0.2218  0.3268 -0.5336
  240ACOH    C110657   4.952   3.780   3.837  0.3747 -0.1965 -0.0875
  240ACOH    H110658   4.971   3.887   3.843 -0.4465 -0.0364 -0.2609
  240ACOH    H210659   5.002   3.734   3.751  1.1140  0.7051 -0.1523
  240ACOH    H310660   4.974   3.730   3.931 -1.9181 -0.2538  0.4332
  241ACOH    H410661   7.111   1.226   1.653  0.1166  1.6043  2.1816
  241ACOH    O210662   7.016   1.206   1.660  0.2171 -0.0977 -0.5593
  241ACOH    C210663   6.979   1.157   1.537 -0.1333 -0.1643 -0.8810
  241ACOH    O110664   7.021   1.194   1.428 -0.0508  0.5172  0.3373
  241ACOH    C110665   6.869   1.058   1.550  0.4368 -0.1919  0.3302
  241ACOH    H110666   6.897   0.987   1.628 -0.8389  1.2036  2.0721
  241ACOH    H210667   6.845   1.008   1.456 -2.4891  1.4696  0.1507
  241ACOH    H310668   6.787   1.117   1.589 -0.9316 -1.0432 -1.2044
  242ACOH    H410669   6.840   2.137   3.230 -1.5285  0.6187  1.4657
  242ACOH    O210670   6.763   2.107   3.179 -0.4165  0.1513  0.0256
  242ACOH    C210671   6.650   2.114   3.257  0.2539  0.1997  0.1296
  242ACOH    O110672   6.650   2.115   3.378  0.0337 -0.1778  1.2311
  242ACOH    C110673   6.519   2.091   3.188 -0.0013 -0.4266  0.2318
  242ACOH    H110674   6.520   2.143   3.092 -0.0883  0.5749  0.7621
  242ACOH    H210675   6.441   2.139   3.247 -1.7019  1.3221 -3.2806
  242ACOH    H310676   6.515   1.983   3.180 -0.2158 -0.4169  0.2024
  243ACOH    H410677   7.915   5.950   1.103  2.2295  1.1407 -1.5929
  243ACOH    O210678   7.889   6.041   1.126  0.3614  0.1323  0.3755
  243ACOH    C210679   7.958   6.128   1.051  0.7391 -0.9352 -0.5246
  243ACOH    O110680   8.013   6.109   0.946  0.0781 -0.0566  0.3047
  243ACOH    C110681   7.933   6.259   1.104  0.0702  0.0641 -0.2591
  243ACOH    H110682   8.018   6.327   1.101 -0.1125  0.5160  2.8820
  243ACOH    H210683   7.912   6.254   1.211 -0.3537  2.3806 -0.2197
  243ACOH    H310684   7.850   6.301   1.046  0.2895  2.7174  1.2755
  244ACOH    H410685   4.570   3.214   1.105 -0.0894  0.0913  0.2330
  244ACOH    O210686   4.477   3.190   1.095 -0.0409  0.0421 -0.1148
  244ACOH    C210687   4.418   3.202   1.216 -0.7000 -0.8711 -0.3529
  244ACOH    O110688   4.479   3.227   1.324  0.3189  0.2082  0.3365
  244ACOH    C110689   4.278   3.167   1.211  0.7638  0.2586 -0.4843
  244ACOH    H110690   4.266   3.071   1.260  1.3971 -0.2973 -1.4069
  244ACOH    H210691   4.243   3.167   1.108  0.5678 -1.8821 -0.4404
  244ACOH    H310692   4.212   3.231   1.269  0.4382 -0.5141 -0.0030
  245ACOH    H410693   7.809   5.462   2.345 -0.2337  1.4664  2.7493
  245ACOH    O210694   7.788   5.374   2.382  0.0280  0.1510 -0.0700
  245ACOH    C210695   7.693   5.399   2.475 -0.1223 -0.1278 -0.5215
  245ACOH    O110696   7.626   5.500   2.486  0.1007 -0.0424 -0.4495
  245ACOH    C110697   7.677   5.296   2.572  0.0099 -0.6995  0.3323
  245ACOH    H110698   7.769   5.285   2.628  0.4912 -0.9414 -0.4987
  245ACOH    H210699   7.660   5.198   2.528  0.3528 -1.3558  1.6579
  245ACOH    H310700   7.590   5.320   2.633 -0.8803  0.6899 -1.4158
  246ACOH    H410701   4.922   4.688   2.338 -0.2119 -2.0185 -0.1139
  246ACOH    O210702   4.964   4.685   2.426 -0.4770  0.0271  0.1157
  246ACOH    C210703   5.049   4.581   2.417 -0.0170  0.0759  0.3109
  246ACOH    O110704   5.083   4.541   2.309 -0.3824  0.5698 -0.1932
  246ACOH    C110705   5.103   4.534   2.548  0.5494 -0.7082 -0.3091
  246ACOH    H110706   5.036   4.568   2.627  0.6870 -2.1632  0.4539
  246ACOH    H210707   5.203   4.576   2.559  0.7906 -1.3352 -0.1112
  246ACOH    H310708   5.099   4.426   2.539  1.5549 -0.7836  0.1281
  247ACOH    H410709   8.251   0.882   3.744 -0.1555  0.9789 -0.4240
  247ACOH    O210710   8.168   0.851   3.705 -0.2362  0.0931  0.4447
  247ACOH    C210711   8.167   0.720   3.711  0.0089  0.1502 -0.1058
  247ACOH    O110712   8.261   0.648   3.681 -0.3469 -0.1713 -0.4868
  247ACOH    C110713   8.026   0.675   3.715 -0.6707 -0.9084 -0.4537
  247ACOH    H110714   7.951   0.736   3.765 -1.0819 -1.0058 -0.9417
  247ACOH    H210715   8.027   0.580   3.767 -1.2521 -1.7359 -1.9254
  247ACOH    H310716   8.002   0.650   3.611  0.7005 -2.0267 -0.5112
  248ACOH    H410717   5.361   4.515   0.682  0.2962  0.6614 -0.8389
  248ACOH    O210718   5.417   4.563   0.746 -0.3122 -0.1458  0.3234
  248ACOH    C210719   5.382   4.501   0.860 -0.1389 -0.2110  0.0260
  248ACOH    O110720   5.321   4.396   0.870 -0.2285  0.4301 -1.0499
  248ACOH    C110721   5.413   4.594   0.971 -0.7163  0.0675 -0.8906
  248ACOH    H110722   5.373   4.695   0.966 -1.2356 -0.0715  0.2583
  248ACOH    H210723   5.522   4.596   0.977 -0.6509  0.9426 -2.3538
  248ACOH    H310724   5.368   4.548   1.059  0.7571  0.7605  0.2592
  249ACOH    H410725   7.852   4.692   1.183  2.3962 -0.5764 -0.5899
  249ACOH    O210726   7.870   4.654   1.270 -0.3062 -0.3067  0.1424
  249ACOH    C210727   7.948   4.549   1.243 -1.0099 -0.1411  0.1069
  249ACOH    O110728   8.013   4.529   1.141  0.0083  0.7686 -0.0043
  249ACOH    C110729   7.959   4.454   1.358 -0.8555 -0.6012 -0.1527
  249ACOH    H110730   8.062   4.425   1.375 -0.4005 -0.5262 -2.5230
  249ACOH    H210731   7.900   4.365   1.337 -0.6090 -1.0781  1.1422
  249ACOH    H310732   7.918   4.501   1.447  0.3254 -0.9959  0.6027
  250ACOH    H410733   7.001   9.561   0.689  3.0762  0.8153 -1.6297
  250ACOH    O210734   6.947   9.634   0.656  0.9817  0.0916  0.0632
  250ACOH    C210735   6.826   9.613   0.706  0.5327 -0.4292  0.5764
  250ACOH    O110736   6.787   9.581   0.817  0.4774 -0.2386  0.0027
  250ACOH    C110737   6.730   9.647   0.595  0.3737  0.0626 -0.2886
  250ACOH    H110738   6.776   9.626   0.498  1.3104 -1.2734  0.4402
  250ACOH    H210739   6.708   9.754   0.598  0.5970  0.1793 -2.1278
  250ACOH    H310740   6.635   9.597   0.611  0.7157 -0.9789 -1.4286
  252ACOH    H410741   7.035   1.991   3.677 -0.3693  1.4460 -1.3238
  252ACOH    O210742   7.093   2.020   3.749 -0.5985 -0.3086 -0.3884
  252ACOH    C210743   7.169   2.121   3.701 -0.2723 -0.4353 -0.2544
  252ACOH    O110744   7.159   2.159   3.583  0.2286  0.0748  0.0458
  252ACOH    C110745   7.269   2.162   3.800  0.5847 -0.0176  0.0365
  252ACOH    H110746   7.234   2.127   3.897 -1.9945  0.7337 -0.5806
  252ACOH    H210747   7.274   2.271   3.805 -0.6873  0.0696 -0.4675
  252ACOH    H310748   7.370   2.128   3.777  1.9777  3.6541  0.4854
  254ACOH    H410749   7.334   6.189   3.906 -0.3520  0.8138 -1.8408
  254ACOH    O210750   7.330   6.279   3.943  0.2238 -0.0600  0.4514
  254ACOH    C210751   7.217   6.284   4.010  0.5992 -0.1249  0.7106
  254ACOH    O110752   7.138   6.195   4.016  0.7033  0.3128  0.5671
  254ACOH    C110753   7.203   6.412   4.082  0.2785 -0.7763  0.1578
  254ACOH    H110754   7.100   6.430   4.111  0.6978  0.4905  0.9055
  254ACOH    H210755   7.236   6.495   4.021  0.0706  0.1651  1.3013
  254ACOH    H310756   7.265   6.405   4.172 -1.6571  1.5291  1.7382
  255ACOH    H410757   7.071   3.380   0.766  0.6671  0.1223  0.1527
  255ACOH    O210758   6.991   3.337   0.801  0.1412  0.6668 -0.3802
  255ACOH    C210759   7.039   3.226   0.859 -0.8876  0.6027 -0.6232
  255ACOH    O110760   7.152   3.176   0.866  0.3451 -0.2949  0.3667
  255ACOH    C110761   6.917   3.157   0.914 -0.1297 -0.2394 -0.3554
  255ACOH    H110762   6.923   3.049   0.900 -0.5451 -0.3035 -0.0624
  255ACOH    H210763   6.827   3.193   0.865 -0.1608  1.8287  1.1275
  255ACOH    H310764   6.911   3.185   1.019  0.8742  1.8397 -0.8308
  256ACOH    H410765   4.058   4.711   1.006 -0.6543 -1.5921  0.8963
  256ACOH    O210766   4.139   4.664   1.031  0.4541  0.0147  0.4390
  256ACOH    C210767   4.235   4.683   0.942  0.3125 -0.5986 -0.2830
  256ACOH    O110768   4.221   4.733   0.829  0.5720 -0.4873 -0.6591
  256ACOH    C110769   4.366   4.615   0.971  0.0511 -0.1218  0.6141
  256ACOH    H110770   4.369   4.522   0.914 -0.9248 -1.0231  1.9897
  256ACOH    H210771   4.373   4.573   1.072  1.6839 -0.5559  0.3452
  256ACOH    H310772   4.452   4.681   0.963 -1.7381  2.2674  0.7001
  257ACOH    H410773   6.911   4.876   5.432  3.0133 -1.9033 -0.0918
  257ACOH    O210774   6.897   4.839   5.521  0.4614  0.0256  0.3529
  257ACOH    C210775   6.868   4.936   5.604  0.2707  0.3849 -0.5655
  257ACOH    O110776   6.822   5.041   5.564 -0.7861 -0.0588 -0.3228
  257ACOH    C110777   6.898   4.897   5.745  0.3161  0.0238 -0.1193
  257ACOH    H110778   6.836   4.810   5.769 -0.2863  0.4875  0.0111
  257ACOH    H210779   6.857   4.972   5.812 -1.4723 -0.2329 -0.9101
  257ACOH    H310780   7.003   4.879   5.768  0.4330  1.4769  0.4979
  258ACOH    H410781   5.519   3.326   2.198  2.3089  1.8035 -2.5882
  258ACOH    O210782   5.530   3.238   2.159 -0.1407  0.1897  0.1793
  258ACOH    C210783   5.430   3.162   2.208 -0.5438  0.1052  0.1486
  258ACOH    O110784   5.322   3.216   2.236 -0.1446 -0.2510  0.3844
  258ACOH    C110785   5.439   3.025   2.160 -0.4186  0.1479  0.1167
  258ACOH    H110786   5.543   2.996   2.175 -1.1381 -1.8360  1.3710
  258ACOH    H210787   5.405   3.018   2.057 -3.6201 -0.1710  1.1310
  258ACOH    H310788   5.383   2.953   2.220 -0.3701 -0.6325 -0.7802
  259ACOH    H410789   8.274   9.101   3.366 -1.4314 -1.8668 -0.3993
  259ACOH    O210790   8.241   9.174   3.312 -0.1465 -1.2370 -0.3413
  259ACOH    C210791   8.159   9.247   3.389  1.0706  0.4452 -0.5379
  259ACOH    O110792   8.133   9.227   3.509  0.0296  0.2151 -0.0647
  259ACOH    C110793   8.108   9.361   3.316 -0.5105 -0.2224  0.3054
  259ACOH    H110794   7.999   9.360   3.325 -0.6954 -1.6488 -1.7055
  259ACOH    H210795   8.146   9.378   3.216 -0.7316  1.1473  0.4555
  259ACOH    H310796   8.144   9.451   3.365 -2.2820  1.6915 -1.8517
  260ACOH    H410797   5.944   6.608   3.162 -0.5354  0.2809 -0.0905
  260ACOH    O210798   5.856   6.582   3.129 -0.3237 -0.2388 -0.2485
  260ACOH    C210799   5.781   6.549   3.233  0.2619 -0.2099 -0.4576
  260ACOH    O110800   5.807   6.579   3.349  0.2122  0.0441  0.9058
  260ACOH    C110801   5.669   6.461   3.197  0.8405  0.5908 -0.3913
  260ACOH    H110802   5.580   6.502   3.244 -0.3443 -0.3950 -1.7220
  260ACOH    H210803   5.695   6.363   3.236  1.5978  1.6640  1.9144
  260ACOH    H310804   5.651   6.438   3.092 -0.9930 -1.7705  0.3900
  261ACOH    H410805   4.228   4.313   4.267 -1.4293 -0.2919  0.8378
  261ACOH    O210806   4.276   4.234   4.298  0.0891  0.0073 -0.6398
  261ACOH    C210807   4.407   4.271   4.315 -0.0479 -0.0860 -0.0858
  261ACOH    O110808   4.494   4.188   4.316 -0.2129  0.6095  0.1078
  261ACOH    C110809   4.429   4.414   4.352  0.2031 -0.4436 -0.4204
  261ACOH    H110810   4.409   4.474   4.263  1.6702 -2.5308 -2.2058
  261ACOH    H210811   4.534   4.428   4.378 -0.4039  0.0315  1.9027
  261ACOH    H310812   4.363   4.442   4.434  1.0018 -0.3191  0.1931
  262ACOH    H410813   9.988   0.899   2.458 -0.9332  0.8366 -1.1449
  262ACOH    O210814   9.911   0.847   2.428 -0.6715 -0.2954  0.0755
  262ACOH    C210815   9.948   0.733   2.375  0.2700  0.7893  0.5267
  262ACOH    O110816  10.052   0.698   2.324 -0.3460 -0.1514 -0.1167
  262ACOH    C110817   9.823   0.656   2.367 -0.2780  0.0369 -0.0714
  262ACOH    H110818   9.843   0.579   2.293 -0.0793 -1.1543  1.1893
  262ACOH    H210819   9.741   0.720   2.334  0.6447  0.2786 -1.9462
  262ACOH    H310820   9.805   0.607   2.463  3.2116 -0.2311  0.4872
  263ACOH    H410821   7.142   3.639   1.094 -0.7524 -0.3044 -2.1482
  263ACOH    O210822   7.089   3.719   1.112  0.0817 -0.0400 -0.7844
  263ACOH    C210823   7.167   3.802   1.179 -0.1925  0.0105  0.2935
  263ACOH    O110824   7.288   3.800   1.184 -0.3993 -0.7960  0.1619
  263ACOH    C110825   7.087   3.916   1.225 -0.2438 -0.4281 -0.1909
  263ACOH    H110826   6.980   3.908   1.203 -0.1196 -0.3411 -0.8386
  263ACOH    H210827   7.131   4.002   1.173  1.3626 -0.0039  1.8091
  263ACOH    H310828   7.096   3.942   1.330  0.4350 -1.8237  0.1026
  264ACOH    H410829   0.014   8.331   1.388  2.0594 -2.2087 -0.0572
  264ACOH    O210830  -0.012   8.320   1.295  0.0100 -0.2602  0.2237
  264ACOH    C210831   0.024   8.421   1.220 -0.6162 -0.5170 -0.5773
  264ACOH    O110832   0.121   8.488   1.256 -0.5844  0.0962 -0.1768
  264ACOH    C110833  -0.002   8.404   1.074 -0.0992 -0.0585 -0.0931
  264ACOH    H110834  -0.021   8.507   1.041 -0.7167 -0.5179 -1.2227
  264ACOH    H210835  -0.085   8.335   1.056 -0.3283  0.2130 -0.0916
  264ACOH    H310836   0.087   8.372   1.020 -0.5529  1.1752 -1.6423
  265ACOH    H410837   4.767   6.381   1.226 -1.2695 -0.6765  0.0846
  265ACOH    O210838   4.729   6.465   1.196 -0.1439 -0.3435 -0.4461
  265ACOH    C210839   4.733   6.555   1.293  0.0308  0.4740 -0.0285
  265ACOH    O110840   4.771   6.535   1.410 -0.4099 -0.2508 -0.6029
  265ACOH    C110841   4.677   6.685   1.258  0.2557  0.2237 -0.1069
  265ACOH    H110842   4.755   6.760   1.273  2.2542 -1.1824 -2.7824
  265ACOH    H210843   4.593   6.703   1.324 -0.1817  0.4872 -0.7347
  265ACOH    H310844   4.647   6.694   1.153  0.4832 -1.7481 -0.3688
  266ACOH    H410845   4.180   4.879   0.475  0.8279  2.2108  0.8809
  266ACOH    O210846   4.107   4.933   0.443 -0.1845  0.6371  0.4465
  266ACOH    C210847   4.134   5.053   0.494 -0.5803  0.4285 -0.2283
  266ACOH    O110848   4.241   5.100   0.536 -0.2495 -0.1431 -0.5863
  266ACOH    C110849   4.023   5.143   0.472  0.3396 -0.4918 -0.1563
  266ACOH    H110850   3.928   5.105   0.510  0.8799 -1.1032  0.6218
  266ACOH    H210851   4.017   5.155   0.364 -0.7030 -4.8417 -0.6771
  266ACOH    H310852   4.043   5.243   0.513  0.2946 -0.6233  0.1904
  267ACOH    H410853   3.191   5.052   0.415  0.9175  1.5388 -1.8209
  267ACOH    O210854   3.113   5.025   0.363 -0.0377 -0.0089  0.3578
  267ACOH    C210855   3.003   5.060   0.433  0.5251  1.0195  0.0666
  267ACOH    O110856   2.999   5.135   0.527  0.3854  0.8759 -0.1424
  267ACOH    C110857   2.888   5.003   0.360  0.4196  0.6611 -0.2213
  267ACOH    H110858   2.907   5.009   0.253  3.0242 -0.5063  0.1397
  267ACOH    H210859   2.798   5.063   0.375 -0.1416  0.1129 -1.3387
  267ACOH    H310860   2.879   4.898   0.389 -0.2419  0.4110 -1.3312
  269ACOH    H410861   7.921   6.581   0.555  0.6901 -0.5027  1.4981
  269ACOH    O210862   7.837   6.534   0.569  0.3321 -0.2224  0.3560
  269ACOH    C210863   7.848   6.446   0.667  0.6500  0.7175  0.4973
  269ACOH    O110864   7.948   6.415   0.724 -0.1892  0.0694  0.0015
  269ACOH    C110865   7.734   6.354   0.679  0.1089  0.2467 -0.6911
  269ACOH    H110866   7.768   6.255   0.648 -0.9744 -0.0574 -0.9357
  269ACOH    H210867   7.648   6.381   0.617  0.7174  0.5835 -1.3948
  269ACOH    H310868   7.712   6.358   0.786  0.0567 -1.7671 -0.5981
  271ACOH    H410869   3.732   2.429   3.174 -1.8105  0.9628 -0.8774
  271ACOH    O210870   3.754   2.460   3.085  0.4242  0.0497 -0.6887
  271ACOH    C210871   3.882   2.479   3.084 -0.1914  0.6018  0.3770
  271ACOH    O110872   3.964   2.459   3.174 -0.2440  0.0405 -0.2484
  271ACOH    C110873   3.921   2.542   2.954  0.0333  0.6860 -0.4157
  271ACOH    H110874   3.933   2.649   2.974 -0.3900  0.5160  0.8088
  271ACOH    H210875   3.856   2.530   2.868 -1.0859  0.5659  0.4403
  271ACOH    H310876   4.013   2.492   2.925  0.5595  2.5865 -2.1947
  272ACOH    H410877   8.712   0.562   4.737 -0.3226 -0.4969 -2.7273
  272ACOH    O210878   8.648   0.635   4.740  0.4271  0.1130  0.0403
  272ACOH    C210879   8.692   0.732   4.659 -0.0435 -0.0151 -0.1917
  272ACOH    O110880   8.801   0.741   4.607  0.3456  0.1560  0.3443
  272ACOH    C110881   8.586   0.833   4.632  0.4792 -0.7583 -0.4127
  272ACOH    H110882   8.633   0.930   4.616 -3.7479  1.5330  0.2675
  272ACOH    H210883   8.517   0.846   4.715 -0.6056 -1.6793 -1.1533
  272ACOH    H310884   8.535   0.806   4.539  0.7543 -2.4766 -0.0729
  273ACOH    H410885   6.190   0.138   0.675  1.3055 -0.5099  0.3036
  273ACOH    O210886   6.252   0.172   0.608  0.8958 -0.8802 -0.2680
  273ACOH    C210887   6.184   0.210   0.504 -0.5477 -0.0157  0.0998
  273ACOH    O110888   6.065   0.204   0.487  0.0600  0.2947 -0.4860
  273ACOH    C110889   6.271   0.268   0.402  0.1620  1.0387 -0.5577
  273ACOH    H110890   6.260   0.376   0.390 -0.4881  1.0766  0.3524
  273ACOH    H210891   6.243   0.225   0.306 -0.4048  0.6221 -0.2111
  273ACOH    H310892   6.378   0.246   0.414 -0.6362 -2.4919  0.8877
  274ACOH    H410893   8.048   3.875   2.723 -1.4219  0.9286 -2.1225
  274ACOH    O210894   7.976   3.894   2.786 -0.2093 -0.5030 -0.2710
  274ACOH    C210895   7.869   3.815   2.756  0.3259 -0.0086  0.1387
  274ACOH    O110896   7.865   3.729   2.666  0.3355 -0.4108 -0.4428
  274ACOH    C110897   7.748   3.852   2.827 -0.0317 -0.4123 -0.0028
  274ACOH    H110898   7.785   3.939   2.882  0.4261 -0.5157 -0.1401
  274ACOH    H210899   7.714   3.774   2.895 -1.7904  0.2944 -0.0564
  274ACOH    H310900   7.673   3.881   2.755  0.0836  1.3757  0.5746
  275ACOH    H410901   6.214   8.078   3.889  1.8523 -0.3470  0.4909
  275ACOH    O210902   6.161   8.028   3.954  0.2332  0.6003 -0.0592
  275ACOH    C210903   6.109   8.119   4.036 -1.2211  0.2926  0.0389
  275ACOH    O110904   6.144   8.233   4.054  0.5572 -0.6231 -0.3712
  275ACOH    C110905   6.000   8.059   4.123  0.0240  0.4677  0.4819
  275ACOH    H110906   5.939   8.137   4.168  0.6375  1.8382 -0.9644
  275ACOH    H210907   6.053   7.999   4.196  1.1851  1.2409  0.2947
  275ACOH    H310908   5.936   7.999   4.059  0.4535 -1.0706  1.4868
  276ACOH    H410909   5.392   4.227   2.249 -1.5717  0.9153  0.9455
  276ACOH    O210910   5.429   4.306   2.205 -0.1415 -0.0696  0.3780
  276ACOH    C210911   5.384   4.309   2.080  0.0603  0.9130  0.2070
  276ACOH    O110912   5.307   4.225   2.032 -0.3039 -0.0242 -0.1092
  276ACOH    C110913   5.417   4.443   2.027  0.0269 -0.1940  0.4978
  276ACOH    H110914   5.517   4.476   2.053  1.0906 -1.9013 -1.3299
  276ACOH    H210915   5.352   4.523   2.063 -0.0860 -1.2737  2.8035
  276ACOH    H310916   5.410   4.456   1.919 -1.9260  0.6749  0.7014
  277ACOH    H410917   7.222   2.838   5.372  0.8029  0.8362 -0.4348
  277ACOH    O210918   7.160   2.863   5.442  0.6644 -0.2366 -0.1632
  277ACOH    C210919   7.222   2.945   5.524 -0.4845 -0.3794 -0.5734
  277ACOH    O110920   7.296   3.036   5.494  0.1961 -0.2330  0.3381
  277ACOH    C110921   7.160   2.928   5.659  0.2842 -1.1485 -0.4341
  277ACOH    H110922   7.197   2.992   5.739  1.6397  0.3966 -2.2471
  277ACOH    H210923   7.179   2.828   5.698 -2.8140 -1.0855  1.4017
  277ACOH    H310924   7.051   2.931   5.652  0.4191  1.6078 -2.0352
  278ACOH    H410925   1.693   4.072   4.377 -0.8538 -0.2635 -0.0939
  278ACOH    O210926   1.744   4.007   4.326 -1.2777 -0.3828 -0.3695
  278ACOH    C210927   1.846   3.963   4.404 -0.1375 -0.4960 -0.1590
  278ACOH    O110928   1.848   3.984   4.522 -0.1557  0.1784 -0.7038
  278ACOH    C110929   1.921   3.854   4.336 -0.1524 -0.2405 -0.8355
  278ACOH    H110930   1.888   3.761   4.383 -0.7298  0.7018  0.6573
  278ACOH    H210931   2.028   3.863   4.354 -0.2433  0.9787 -0.8787
  278ACOH    H310932   1.893   3.855   4.231 -1.0701  0.9516 -0.5809
  279ACOH    H410933   5.228   2.700   2.419 -2.9687  1.2309  2.8420
  279ACOH    O210934   5.276   2.664   2.495 -0.0038 -0.4315  0.2966
  279ACOH    C210935   5.186   2.612   2.576 -0.4031 -0.4819  0.1665
  279ACOH    O110936   5.069   2.643   2.570 -0.0720  0.2187  0.6139
  279ACOH    C110937   5.248   2.556   2.699  0.1263  0.1422  0.2432
  279ACOH    H110938   5.196   2.478   2.754  1.3159 -1.9387 -1.4805
  279ACOH    H210939   5.268   2.642   2.762  1.0260  0.5340 -0.5627
  279ACOH    H310940   5.345   2.520   2.663 -0.6673  1.7055 -3.7830
  280ACOH    H410941   7.123   5.126   4.395 -0.2314 -1.7360 -1.8365
  280ACOH    O210942   7.072   5.185   4.337  0.0257 -0.3710 -0.7199
  280ACOH    C210943   7.004   5.270   4.428  0.5182  0.0937 -0.0687
  280ACOH    O110944   7.055   5.311   4.527 -0.1228  0.1682  0.0330
  280ACOH    C110945   6.888   5.342   4.365 -0.4196 -0.1608  0.0401
  280ACOH    H110946   6.806   5.324   4.434 -1.4675  0.3631 -1.0407
  280ACOH    H210947   6.866   5.299   4.267 -1.3387  0.6563 -0.1275
  280ACOH    H310948   6.915   5.448   4.369  1.7648 -0.6449 -1.1908
  281ACOH    H410949   6.533   2.144   3.492 -3.5650 -0.6570 -2.6187
  281ACOH    O210950   6.469   2.163   3.563 -0.2802  0.5805  0.1455
  281ACOH    C210951   6.374   2.066   3.554  0.3945 -0.5250 -0.7385
  281ACOH    O110952   6.341   1.994   3.459  0.5537  0.3319  0.0309
  281ACOH    C110953   6.299   2.070   3.680  0.4686  0.7911  0.2933
  281ACOH    H110954   6.352   2.006   3.751 -0.7874  0.3203  0.8219
  281ACOH    H210955   6.196   2.038   3.664  1.1008 -1.5971  0.8497
  281ACOH    H310956   6.297   2.172   3.720 -3.8241 -0.0386  2.4482
  283ACOH    H410957   3.725   5.719   4.131 -0.5060 -0.5620  1.1836
  283ACOH    O210958   3.796   5.754   4.187 -0.1231  0.1717  0.2595
  283ACOH    C210959   3.892   5.666   4.206  0.0743 -0.1573  1.7335
  283ACOH    O110960   3.889   5.545   4.190 -0.3034 -1.0378 -0.2097
  283ACOH    C110961   4.008   5.733   4.267 -0.6983  0.6894 -0.9100
  283ACOH    H110962   4.071   5.661   4.320 -1.4531 -0.5382 -1.6668
  283ACOH    H210963   3.964   5.799   4.342  0.5507 -1.4882  1.8393
  283ACOH    H310964   4.072   5.786   4.198  2.9185 -0.0810  1.7090
  286ACOH    H410965   6.622   2.144   2.896  0.9646 -0.6435  0.7035
  286ACOH    O210966   6.661   2.232   2.908 -0.7576  0.3148 -0.4966
  286ACOH    C210967   6.763   2.260   2.828 -0.0365  0.5080 -0.6450
  286ACOH    O110968   6.813   2.184   2.750 -0.2057 -0.3231  0.4579
  286ACOH    C110969   6.803   2.405   2.845  0.4031  0.1979  0.1003
  286ACOH    H110970   6.786   2.454   2.749  0.8872  0.5956  0.2196
  286ACOH    H210971   6.906   2.427   2.874  1.0102 -0.8133 -1.2381
  286ACOH    H310972   6.743   2.452   2.922 -0.5043  2.2681 -1.8099
  287ACOH    H410973   2.588   3.140   3.441 -0.4419  2.7422  1.6840
  287ACOH    O210974   2.655   3.179   3.383 -0.0709 -0.4888 -0.1952
  287ACOH    C210975   2.611   3.171   3.252  0.0886 -0.8916 -0.2482
  287ACOH    O110976   2.508   3.117   3.219 -0.1614  0.0159  0.2256
  287ACOH    C110977   2.703   3.256   3.165  0.1705  0.1614 -0.7373
  287ACOH    H110978   2.751   3.189   3.094  0.4461  1.9193 -2.2615
  287ACOH    H210979   2.780   3.304   3.226  1.0802  0.6084 -2.1931
  287ACOH    H310980   2.654   3.335   3.108 -1.5673  1.8094  2.8773
  288ACOH    H410981   5.648   3.566   0.430  0.0061 -0.1334  0.5779
  288ACOH    O210982   5.674   3.479   0.464  0.4527 -0.2698 -0.1066
  288ACOH    C210983   5.795   3.435   0.416 -0.4263  0.0083 -0.6782
  288ACOH    O110984   5.860   3.487   0.327 -0.2887  0.3170  0.6789
  288ACOH    C110985   5.823   3.297   0.468 -0.2846  0.2028  0.2029
  288ACOH    H110986   5.841   3.229   0.384 -1.8084  0.1364 -0.0970
  288ACOH    H210987   5.732   3.261   0.517 -0.3496 -1.3016 -0.9786
  288ACOH    H310988   5.908   3.297   0.535 -0.2467 -1.2556  0.1785
  289ACOH    H410989   5.336   5.267   0.607 -1.6321 -0.4507  0.5919
  289ACOH    O210990   5.327   5.360   0.633  0.3384 -0.2129  0.5165
  289ACOH    C210991   5.197   5.392   0.616  0.2127 -0.1212 -0.9630
  289ACOH    O110992   5.108   5.315   0.605  0.9814 -0.3161 -0.7921
  289ACOH    C110993   5.166   5.536   0.651  0.0388  0.1211 -0.1306
  289ACOH    H110994   5.250   5.603   0.636 -0.6204  1.0048  0.0575
  289ACOH    H210995   5.117   5.546   0.748  0.2656  1.6420 -0.1605
  289ACOH    H310996   5.086   5.573   0.586  0.6847  1.7616  0.0010
  290ACOH    H410997   5.282   8.618   0.011 -1.2892 -0.2793 -0.0281
  290ACOH    O210998   5.327   8.583   0.090  0.3579  0.7298 -0.4849
  290ACOH    C210999   5.242   8.589   0.192 -1.1597  0.0456  0.5612
  290ACOH    O111000   5.133   8.632   0.188  0.1934 -0.7855  0.1955
  290ACOH    C111001   5.301   8.527   0.309  0.0226  0.7304 -0.1764
  290ACOH    H111002   5.333   8.596   0.387  1.3470 -1.0990  0.9597
  290ACOH    H211003   5.387   8.468   0.277  0.9074  1.6105  0.5716
  290ACOH    H311004   5.235   8.459   0.364  0.4950  2.0791  2.1058
  291ACOH    H411005   7.631   5.212   3.640  0.0783 -0.0260 -0.4378
  291ACOH    O211006   7.571   5.138   3.661  0.1571 -0.2316 -0.9168
  291ACOH    C211007   7.452   5.158   3.598 -0.3380 -0.7907  0.2455
  291ACOH    O111008   7.408   5.267   3.564 -0.6272 -0.1971  0.6193
  291ACOH    C111009   7.368   5.035   3.618 -0.2538  0.6764  0.3079
  291ACOH    H111010   7.410   4.956   3.556 -0.5775 -0.0780  1.0366
  291ACOH    H211011   7.263   5.059   3.599 -0.3165  0.2160  0.0687
  291ACOH    H311012   7.386   4.996   3.718 -0.9723 -0.7556 -0.1212
  292ACOH    H411013   4.558   3.768   2.876 -1.0708  0.4279 -0.2728
  292ACOH    O211014   4.587   3.827   2.948 -0.3763 -0.0867 -0.1313
  292ACOH    C211015   4.600   3.748   3.055 -0.0497 -1.1399  0.5941
  292ACOH    O111016   4.570   3.630   3.071  0.2456  0.5503 -0.2339
  292ACOH    C111017   4.649   3.826   3.170  0.0223  0.2869 -0.6801
  292ACOH    H111018   4.588   3.815   3.259  0.3194  0.1438 -0.4917
  292ACOH    H211019   4.656   3.931   3.141 -0.9132  0.7996  0.9252
  292ACOH    H311020   4.750   3.788   3.191 -0.5118 -0.3663  0.7760
  294ACOH    H411021   5.029   4.136   1.712  0.1882  3.1612 -1.2260
  294ACOH    O211022   5.117   4.097   1.699 -1.0879 -0.4226  0.1448
  294ACOH    C211023   5.135   3.970   1.748 -0.2231  0.0423 -0.0661
  294ACOH    O111024   5.045   3.908   1.801  0.1336 -0.2833 -0.2755
  294ACOH    C111025   5.262   3.901   1.698  0.6272 -0.1399 -0.0229
  294ACOH    H111026   5.267   3.939   1.596  1.5901 -1.1477 -0.3655
  294ACOH    H211027   5.256   3.793   1.694  0.5917 -0.1553  0.4410
  294ACOH    H311028   5.357   3.920   1.747 -0.4061  1.5735  1.3759
  295ACOH    H411029   4.128   5.412   2.324  1.7073  0.1052  0.5503
  295ACOH    O211030   4.194   5.411   2.253  0.9022 -0.0224 -0.2035
  295ACOH    C211031   4.188   5.288   2.196  0.7066 -0.0612 -0.0183
  295ACOH    O111032   4.088   5.212   2.199  0.1825 -0.3863  0.1327
  295ACOH    C111033   4.312   5.267   2.127  0.2108  0.8448 -0.4855
  295ACOH    H111034   4.313   5.170   2.076  0.8428 -0.0483  1.2071
  295ACOH    H211035   4.402   5.279   2.187 -0.7667  0.3638  1.1108
  295ACOH    H311036   4.323   5.344   2.050  0.7484 -1.6425 -2.9988
  296ACOH    H411037   7.714   3.446   2.425 -0.7960  0.0375 -0.9011
  296ACOH    O211038   7.639   3.386   2.414 -0.8399 -0.1849  0.4886
  296ACOH    C211039   7.638   3.324   2.293 -0.0837  0.8235  0.5896
  296ACOH    O111040   7.700   3.358   2.193  0.0323 -0.0844 -0.2548
  296ACOH    C111041   7.524   3.224   2.287  0.6128 -0.5869 -0.3153
  296ACOH    H111042   7.518   3.194   2.183 -0.4452 -0.1741 -0.3759
  296ACOH    H211043   7.431   3.276   2.310  0.5194 -0.8227 -0.1476
  296ACOH    H311044   7.539   3.139   2.354 -1.5451 -1.2370 -0.6147
  297ACOH    H411045   5.339   7.321   4.150 -0.7310 -0.2445  2.6721
  297ACOH    O211046   5.355   7.227   4.131  0.6831  0.4025  0.3532
  297ACOH    C211047   5.242   7.153   4.125  0.3271  0.0471  0.5662
  297ACOH    O111048   5.123   7.199   4.132 -0.2377  0.5253  0.0113
  297ACOH    C111049   5.267   7.010   4.084 -0.6798  0.1754 -0.4115
  297ACOH    H111050   5.372   6.990   4.107  0.0785  1.2746 -2.7321
  297ACOH    H211051   5.237   7.000   3.980 -3.5968 -1.1319  0.5068
  297ACOH    H311052   5.201   6.949   4.145 -0.2597  0.0831 -0.0448
  298ACOH    H411053   5.667   2.244   2.702  0.1286  0.5167 -1.1222
  298ACOH    O211054   5.697   2.256   2.794 -0.2672  0.0594 -0.9334
  298ACOH    C211055   5.824   2.209   2.788  0.3011 -0.5558 -0.1660
  298ACOH    O111056   5.876   2.157   2.692  0.0598 -0.3490 -0.2480
  298ACOH    C111057   5.902   2.271   2.900  0.3311 -0.1953 -0.3176
  298ACOH    H111058   6.005   2.237   2.887  1.1554  2.5674 -1.3542
  298ACOH    H211059   5.856   2.229   2.990 -0.5726 -3.6168 -2.2810
  298ACOH    H311060   5.910   2.379   2.893  4.0499 -0.4461 -1.0885
  299ACOH    H411061   3.900   5.350   0.789 -2.7150 -1.8470  0.3923
  299ACOH    O211062   3.855   5.423   0.743  0.1847 -0.1359  0.1321
  299ACOH    C211063   3.891   5.535   0.806  0.5996 -0.4148  0.5016
  299ACOH    O111064   4.004   5.563   0.832 -0.2453  0.2708 -0.6311
  299ACOH    C111065   3.800   5.644   0.765 -0.0559 -0.3335 -0.5056
  299ACOH    H111066   3.704   5.612   0.806 -1.5196  2.6833 -1.4766
  299ACOH    H211067   3.791   5.648   0.657  0.5165  1.3625 -0.4933
  299ACOH    H311068   3.829   5.743   0.798  0.1936 -0.1664 -1.2353
  300ACOH    H411069   2.818   4.648   2.837  0.9134  0.5977 -1.2125
  300ACOH    O211070   2.897   4.629   2.890  0.2340  0.7490 -0.1393
  300ACOH    C211071   2.873   4.550   2.998  0.5613  0.4633  0.2910
  300ACOH    O111072   2.762   4.501   3.023 -0.0821 -0.7154  0.5708
  300ACOH    C111073   2.996   4.498   3.054  0.2785  0.0142  0.0196
  300ACOH    H111074   3.066   4.581   3.058 -2.3037  2.2096  1.4711
  300ACOH    H211075   3.043   4.417   2.998 -1.5134 -0.9198 -0.1932
  300ACOH    H311076   2.977   4.457   3.154  0.1254 -0.9776 -0.4121
  301ACOH    H411077   7.983   2.526   4.182  0.6382 -0.9973  1.1397
  301ACOH    O211078   7.913   2.571   4.232  0.0068 -0.4522 -0.1901
  301ACOH    C211079   7.873   2.686   4.177 -0.3365  0.1108  0.3018
  301ACOH    O111080   7.875   2.702   4.056 -0.5203  0.3350  0.4806
  301ACOH    C111081   7.783   2.760   4.262  0.3538  0.4394  0.3453
  301ACOH    H111082   7.833   2.774   4.358  0.9365  1.0867 -0.0520
  301ACOH    H211083   7.692   2.701   4.274  0.0356  0.7178 -0.6040
  301ACOH    H311084   7.751   2.853   4.217  3.3041  0.8991 -0.9298
  302ACOH    H411085   7.246   1.427   4.405 -0.5420  0.3330  0.6554
  302ACOH    O211086   7.190   1.411   4.326  0.1825 -0.3728  0.2703
  302ACOH    C211087   7.254   1.473   4.218  0.4574 -0.7480  0.3898
  302ACOH    O111088   7.357   1.538   4.223 -0.0269 -0.1180 -0.0583
  302ACOH    C111089   7.165   1.473   4.095  0.0931  0.9072 -0.7088
  302ACOH    H111090   7.102   1.561   4.095 -1.4680 -0.1861 -0.0356
  302ACOH    H211091   7.105   1.382   4.100  1.7020 -0.2344 -1.4789
  302ACOH    H311092   7.227   1.470   4.005  0.7871 -2.7250 -0.2120
  303ACOH    H411093   2.538   3.257   1.862  0.0436 -0.3318  2.9223
  303ACOH    O211094   2.470   3.188   1.855 -0.1032  0.0370  0.2223
  303ACOH    C211095   2.367   3.219   1.934  0.8109  0.3247  0.2294
  303ACOH    O111096   2.346   3.337   1.963  0.7954 -0.7499 -0.5603
  303ACOH    C111097   2.272   3.106   1.929  0.2476 -0.0079 -0.3085
  303ACOH    H111098   2.182   3.143   1.880 -0.2103  0.1760  0.6714
  303ACOH    H211099   2.254   3.080   2.033  3.3157 -1.1743 -0.0053
  303ACOH    H311100   2.303   3.016   1.876 -0.9876 -0.5776 -0.0823
  305ACOH    H411101   7.797   2.414   3.195  0.7656  0.1746  0.4240
  305ACOH    O211102   7.741   2.478   3.243  0.5271  0.1566  0.1681
  305ACOH    C211103   7.800   2.479   3.368  0.0961 -0.1053 -0.1566
  305ACOH    O111104   7.902   2.427   3.409  0.3864  0.0968 -0.7337
  305ACOH    C111105   7.715   2.552   3.463 -0.4457 -0.2341 -0.3325
  305ACOH    H111106   7.709   2.503   3.560  0.1104 -0.1684 -0.2647
  305ACOH    H211107   7.612   2.548   3.429 -0.7950  1.8051  0.4199
  305ACOH    H311108   7.746   2.656   3.469  1.1169 -0.6433 -0.9609
  306ACOH    H411109   9.489   1.812   3.908  2.6644  1.0308  2.1550
  306ACOH    O211110   9.487   1.884   3.842 -0.0309 -1.0730 -0.2175
  306ACOH    C211111   9.455   1.829   3.727  0.8881  0.5826 -0.5272
  306ACOH    O111112   9.443   1.707   3.704  0.4254  0.3231 -0.1001
  306ACOH    C111113   9.483   1.922   3.613  0.4049  0.1909  0.1446
  306ACOH    H111114   9.560   1.882   3.548  1.1713 -0.1574  1.2441
  306ACOH    H211115   9.507   2.026   3.636 -0.5157  0.2579  0.8327
  306ACOH    H311116   9.390   1.922   3.557 -0.1411 -0.9642  1.0274
  308ACOH    H411117   3.859   6.990   4.366  0.1008  0.7384 -0.5105
  308ACOH    O211118   3.888   6.942   4.287  0.4046  0.4022 -0.1949
  308ACOH    C211119   3.979   6.855   4.331  0.0713 -0.1909  0.7988
  308ACOH    O111120   4.034   6.861   4.441 -0.4305  0.0719  0.0318
  308ACOH    C111121   4.016   6.757   4.224 -0.0116  0.3424  0.5271
  308ACOH    H111122   4.030   6.816   4.134  0.7059 -1.9002 -0.8511
  308ACOH    H211123   3.952   6.669   4.230 -0.9383  1.0216  0.9447
  308ACOH    H311124   4.117   6.726   4.248 -0.3649 -2.0123 -0.8332
  309ACOH    H411125   7.935   5.810   0.314 -2.2978 -0.9370  2.0911
  309ACOH    O211126   7.861   5.817   0.251 -0.3329  0.0869 -0.1711
  309ACOH    C211127   7.880   5.923   0.173 -0.3554 -0.0450  0.1065
  309ACOH    O111128   7.973   5.997   0.176  0.7917  0.0788  0.1469
  309ACOH    C111129   7.787   5.934   0.058  0.2172 -0.0193 -0.7146
  309ACOH    H111130   7.744   6.034   0.067 -1.4109 -0.4383 -3.3392
  309ACOH    H211131   7.712   5.855   0.051  0.9585 -0.7428 -0.5231
  309ACOH    H311132   7.847   5.924  -0.033  2.0579  0.3822  0.4387
  310ACOH    H411133   5.675   1.835   2.608 -0.7192 -0.6158 -0.0841
  310ACOH    O211134   5.599   1.884   2.643 -0.3544 -0.0380 -0.0803
  310ACOH    C211135   5.613   1.895   2.773  0.1001  0.1527 -0.3577
  310ACOH    O111136   5.713   1.869   2.839 -0.9956  0.0848 -0.8167
  310ACOH    C111137   5.492   1.957   2.847 -0.1304 -0.9623  0.3147
  310ACOH    H111138   5.524   1.989   2.946  1.4128  0.3147 -0.5735
  310ACOH    H211139   5.410   1.885   2.846  0.1929 -1.3323 -0.0599
  310ACOH    H311140   5.463   2.041   2.784 -0.0143 -1.2501 -0.1308
  311ACOH    H411141   5.924   0.955   0.677  2.8622 -0.8509  5.2518
  311ACOH    O211142   6.004   0.994   0.637  0.0164 -0.2403 -0.2824
  311ACOH    C211143   6.084   1.041   0.735  0.0515 -0.4806 -0.0156
  311ACOH    O111144   6.073   1.040   0.854 -0.7057 -0.2347 -0.4021
  311ACOH    C111145   6.209   1.106   0.682 -0.0144 -0.0426 -0.6377
  311ACOH    H111146   6.176   1.197   0.631  1.9823  0.0740 -1.7819
  311ACOH    H211147   6.257   1.032   0.618 -0.7484 -1.2917  0.2494
  311ACOH    H311148   6.277   1.135   0.763 -2.1937  1.9661  0.5558
  312ACOH    H411149   7.697   3.358   1.822 -0.6540 -0.9129  0.7619
  312ACOH    O211150   7.727   3.428   1.882 -0.6162 -0.2899  0.0192
  312ACOH    C211151   7.645   3.530   1.851 -0.2549 -0.2082  1.2152
  312ACOH    O111152   7.532   3.518   1.800 -0.0663 -0.3844 -0.1610
  312ACOH    C111153   7.681   3.662   1.895  0.7235 -0.4505 -0.7604
  312ACOH    H111154   7.697   3.725   1.808 -0.8671  2.3128  0.8698
  312ACOH    H211155   7.775   3.656   1.950 -0.0653  0.4732  0.7316
  312ACOH    H311156   7.607   3.711   1.959  1.4074  0.6056 -0.7663
  313ACOH    H411157   5.194   2.971   1.746 -0.6762  1.9050  0.3914
  313ACOH    O211158   5.280   2.986   1.788  0.1114  0.5418 -0.6934
  313ACOH    C211159   5.333   3.092   1.731 -0.2784  0.2032 -0.4244
  313ACOH    O111160   5.289   3.153   1.642  0.9996 -0.5941 -0.0422
  313ACOH    C111161   5.457   3.130   1.804  0.4802  0.0037  0.2844
  313ACOH    H111162   5.527   3.047   1.809  1.9505  1.0718 -1.8673
  313ACOH    H211163   5.442   3.178   1.901  1.6711 -2.0883  1.5401
  313ACOH    H311164   5.511   3.202   1.742 -0.8567  1.2152  0.5103
  315ACOH    H411165   8.619   8.453   0.834 -1.7654 -1.3446 -2.5576
  315ACOH    O211166   8.614   8.519   0.763  0.1833  0.7582 -0.8197
  315ACOH    C211167   8.577   8.636   0.820  0.4173  0.0708 -0.3933
  315ACOH    O111168   8.552   8.653   0.938  0.0607  0.3443  0.3065
  315ACOH    C111169   8.570   8.748   0.727  0.2690  0.4005 -0.5866
  315ACOH    H111170   8.466   8.780   0.717  0.2265  0.3362 -0.3518
  315ACOH    H211171   8.615   8.707   0.637  1.3383  0.2779 -0.0063
  315ACOH    H311172   8.625   8.839   0.748  1.9560 -0.3984 -1.4696
  316ACOH    H411173   5.370   2.220   3.541  1.6858  0.8305  1.4053
  316ACOH    O211174   5.418   2.137   3.556  0.2292 -0.1922  0.5769
  316ACOH    C211175   5.326   2.046   3.583  0.1282  0.7965  0.4226
  316ACOH    O111176   5.209   2.050   3.624 -0.3032  0.1417  0.3701
  316ACOH    C111177   5.382   1.912   3.553  0.1715 -0.2766  0.3647
  316ACOH    H111178   5.311   1.854   3.495 -0.5710  0.4528  0.5246
  316ACOH    H211179   5.415   1.852   3.638  2.7710 -0.0187 -0.4397
  316ACOH    H311180   5.474   1.932   3.499 -0.0306 -0.2423  0.0323
  317ACOH    H411181   4.041   7.802   0.531 -0.3501 -0.8834  1.7498
  317ACOH    O211182   4.126   7.757   0.514  0.2138  0.6101  0.4068
  317ACOH    C211183   4.124   7.659   0.597 -0.0137  0.3765  0.7557
  317ACOH    O111184   4.040   7.642   0.683 -0.2430  0.4098 -0.0451
  317ACOH    C111185   4.255   7.583   0.585 -0.4213 -0.1067  0.1065
  317ACOH    H111186   4.348   7.641   0.591  0.4111 -1.5976  2.7357
  317ACOH    H211187   4.262   7.525   0.494 -2.8392 -0.6587  0.2507
  317ACOH    H311188   4.250   7.516   0.671 -0.3754 -2.3092 -1.5663
  318ACOH    H411189   5.347   3.536   5.691  1.6095 -1.1178 -0.8688
  318ACOH    O211190   5.335   3.575   5.603 -0.7211  0.9977  0.3455
  318ACOH    C211191   5.456   3.623   5.580 -0.7201 -0.4253 -0.5586
  318ACOH    O111192   5.556   3.623   5.653  0.2307 -0.3947 -0.0450
  318ACOH    C111193   5.450   3.699   5.455  0.5068  0.2651 -0.3870
  318ACOH    H111194   5.370   3.773   5.464  0.4088 -0.0198  1.2620
  318ACOH    H211195   5.424   3.628   5.377  1.0299  0.0795 -0.3957
  318ACOH    H311196   5.544   3.748   5.429  0.1076  0.6345 -1.1583
  319ACOH    H411197   5.472   7.693   4.498  0.1982 -1.8421  1.8831
  319ACOH    O211198   5.564   7.712   4.524  0.3418 -0.3747  0.3494
  319ACOH    C211199   5.625   7.615   4.460 -0.1795 -0.2315  0.1851
  319ACOH    O111200   5.585   7.502   4.427  0.2474  0.2296  0.2343
  319ACOH    C111201   5.771   7.639   4.474  0.2396  0.6568  0.0881
  319ACOH    H111202   5.791   7.658   4.579 -2.0531  0.4957  0.5945
  319ACOH    H211203   5.810   7.719   4.411 -1.2963  0.7363 -0.7817
  319ACOH    H311204   5.830   7.550   4.455  1.5670  1.5073  0.1760
  320ACOH    H411205   3.999   8.211   3.921 -1.0528  0.0303 -1.9277
  320ACOH    O211206   3.927   8.154   3.953 -0.3679  0.0888 -0.2071
  320ACOH    C211207   3.842   8.145   3.850  0.2805 -0.5098  0.3323
  320ACOH    O111208   3.841   8.223   3.758 -0.4775 -0.1615  0.1635
  320ACOH    C111209   3.734   8.050   3.875 -0.1883  0.0512  0.0394
  320ACOH    H111210   3.669   8.077   3.958 -0.8811 -1.0106 -0.1535
  320ACOH    H211211   3.773   7.949   3.883  1.0858  0.1728 -3.4941
  320ACOH    H311212   3.675   8.038   3.784  0.2507 -1.4784 -0.0531
  321ACOH    H411213   5.606   8.484   1.294 -0.3628  0.2061 -0.1268
  321ACOH    O211214   5.612   8.459   1.200  0.3930 -0.2214  0.0304
  321ACOH    C211215   5.690   8.543   1.133  0.5290 -0.8865 -0.4859
  321ACOH    O111216   5.766   8.618   1.184  0.6908 -0.7664 -0.4762
  321ACOH    C111217   5.675   8.512   0.996 -0.3607  0.4268  0.1270
  321ACOH    H111218   5.709   8.591   0.928  0.9331 -0.4015 -0.2079
  321ACOH    H211219   5.575   8.481   0.965 -0.4996  0.7465  0.2541
  321ACOH    H311220   5.747   8.433   0.975 -2.2669 -0.5704 -3.0149
  322ACOH    H411221   7.435   2.897   4.348 -1.0690  0.7741  0.8611
  322ACOH    O211222   7.374   2.856   4.284  0.0876 -0.3853  0.4866
  322ACOH    C211223   7.256   2.921   4.299 -0.2470 -0.2377  0.4518
  322ACOH    O111224   7.236   3.009   4.374  0.2810  0.5923  0.1227
  322ACOH    C111225   7.167   2.858   4.198 -0.6129 -0.0478  0.0075
  322ACOH    H111226   7.213   2.879   4.102  0.6009  2.1745  1.0233
  322ACOH    H211227   7.067   2.900   4.205 -0.4271  0.5807 -0.9510
  322ACOH    H311228   7.159   2.751   4.219 -4.4196  0.1919  0.0156
  323ACOH    H411229   6.460   0.845   3.691  1.9548  1.0513 -0.3252
  323ACOH    O211230   6.495   0.765   3.732 -0.2500  0.0631 -0.3004
  323ACOH    C211231   6.397   0.676   3.741  0.2776  0.4407  0.0089
  323ACOH    O111232   6.289   0.676   3.683  1.0237 -0.2225 -0.0033
  323ACOH    C111233   6.453   0.562   3.816  0.5883  0.0475  0.3303
  323ACOH    H111234   6.383   0.559   3.899  0.7281  0.0487  0.4499
  323ACOH    H211235   6.555   0.571   3.854  0.7870  0.2019 -0.2437
  323ACOH    H311236   6.440   0.470   3.760 -0.1017 -0.9504  2.0965
  324ACOH    H411237   7.910   2.457   4.587 -0.2547 -0.4080  0.3842
  324ACOH    O211238   7.839   2.476   4.524 -0.1935 -0.3446  0.3342
  324ACOH    C211239   7.739   2.537   4.589  0.0951  0.4996 -0.2501
  324ACOH    O111240   7.725   2.518   4.709  0.1298 -0.0136  0.0841
  324ACOH    C111241   7.621   2.557   4.505  0.6217 -0.1049 -0.1268
  324ACOH    H111242   7.542   2.497   4.552  2.9557 -1.5421  2.0608
  324ACOH    H211243   7.633   2.540   4.398  1.9275 -1.2709  0.1892
  324ACOH    H311244   7.589   2.659   4.524  2.9797  0.6021  0.1760
  326ACOH    H411245   1.356   8.192   1.455 -0.1975  0.6776  0.7938
  326ACOH    O211246   1.280   8.140   1.426  0.5458  0.1240 -0.1721
  326ACOH    C211247   1.290   8.125   1.294  0.0094 -0.3375  0.3809
  326ACOH    O111248   1.356   8.191   1.210 -0.0650  0.1856  0.7187
  326ACOH    C111249   1.186   8.025   1.248 -0.6590 -0.5444 -0.0703
  326ACOH    H111250   1.092   8.054   1.296 -1.2203 -0.7267 -1.0478
  326ACOH    H211251   1.212   7.926   1.285 -3.1905 -1.6245 -1.0560
  326ACOH    H311252   1.177   8.019   1.140  0.7452 -2.6051 -0.1106
  327ACOH    H411253   4.542   4.166   3.851  1.0036 -1.6959  0.4051
  327ACOH    O211254   4.614   4.206   3.903  0.2537  0.6751 -0.2942
  327ACOH    C211255   4.556   4.298   3.988  0.0654  0.1247 -0.4671
  327ACOH    O111256   4.442   4.325   3.998 -0.3417  0.3689 -0.3738
  327ACOH    C111257   4.665   4.361   4.075 -0.3139 -0.0885 -0.3941
  327ACOH    H111258   4.761   4.331   4.033 -0.2303 -0.0493 -0.2341
  327ACOH    H211259   4.658   4.336   4.181  1.0857 -3.0569 -0.9483
  327ACOH    H311260   4.648   4.469   4.069  2.8464  0.3367 -2.9937
  329ACOH    H411261   0.717   0.286   4.044  0.5093 -3.1507 -0.6172
  329ACOH    O211262   0.707   0.315   3.952  0.0961  0.3730  0.4666
  329ACOH    C211263   0.583   0.366   3.941 -1.1223 -0.2563 -0.5999
  329ACOH    O111264   0.492   0.345   4.019 -0.1879 -0.1415  0.0811
  329ACOH    C111265   0.564   0.454   3.815  0.3696 -1.1541  0.0219
  329ACOH    H111266   0.658   0.487   3.771  0.2299 -0.3612  0.3059
  329ACOH    H211267   0.501   0.536   3.850 -0.5493 -2.4206  1.3729
  329ACOH    H311268   0.502   0.414   3.734 -0.6866  0.4268  0.0289
  330ACOH    H411269   7.473   7.960   1.111 -3.3176  1.7810  0.3387
  330ACOH    O211270   7.470   7.980   1.016 -0.5250 -0.7465 -0.3765
  330ACOH    C211271   7.570   7.917   0.949 -0.2005  0.3704 -0.3848
  330ACOH    O111272   7.656   7.855   1.007 -0.3565  0.9558 -0.5030
  330ACOH    C111273   7.570   7.971   0.811  0.2110  1.0105  0.0525
  330ACOH    H111274   7.585   7.888   0.742 -0.8971 -0.4059  1.4784
  330ACOH    H211275   7.657   8.036   0.805  1.0509  0.0066  1.0276
  330ACOH    H311276   7.481   8.031   0.789 -1.4608 -1.3864  0.1103
  331ACOH    H411277   7.504   2.917   1.598  1.3204  0.9395  2.0373
  331ACOH    O211278   7.417   2.926   1.640  0.1961  0.0536 -0.0211
  331ACOH    C211279   7.338   2.966   1.540 -0.6761  0.1154  0.5249
  331ACOH    O111280   7.370   3.007   1.427  0.2176  0.5101 -0.1615
  331ACOH    C111281   7.197   2.974   1.592  0.4199 -0.4777  0.4730
  331ACOH    H111282   7.145   2.882   1.567 -0.5952  1.3370 -4.7418
  331ACOH    H211283   7.149   3.059   1.544 -1.6317  0.7409  4.4676
  331ACOH    H311284   7.192   2.980   1.700  0.7564 -0.6266  0.4965
  332ACOH    H411285   5.231   4.874   0.568  1.4505  1.1353  0.8907
  332ACOH    O211286   5.249   4.887   0.473 -0.0327  0.0385  0.4361
  332ACOH    C211287   5.347   4.982   0.458 -0.0757 -0.6220  0.3384
  332ACOH    O111288   5.366   5.078   0.528  0.6924  0.2078  0.0426
  332ACOH    C111289   5.415   4.967   0.331 -0.3302 -0.2539 -0.0228
  332ACOH    H111290   5.458   4.867   0.324 -0.4335 -0.3255  0.3356
  332ACOH    H211291   5.489   5.046   0.317  1.7451 -1.8578  1.4035
  332ACOH    H311292   5.340   4.974   0.253  1.1139 -1.5586 -1.5707
  334ACOH    H411293   6.790   8.194   4.430 -0.2785 -1.8656  1.3689
  334ACOH    O211294   6.807   8.250   4.507  0.6308 -0.1239 -0.0670
  334ACOH    C211295   6.718   8.354   4.504  0.3814 -0.1852 -0.1638
  334ACOH    O111296   6.651   8.390   4.409  0.0314 -0.1747 -0.1419
  334ACOH    C111297   6.748   8.451   4.609 -0.4413  0.1217 -0.3106
  334ACOH    H111298   6.855   8.461   4.630 -0.5147  1.1916 -0.4110
  334ACOH    H211299   6.693   8.421   4.698  0.3269 -0.2210  0.0567
  334ACOH    H311300   6.708   8.550   4.589  0.5318  0.5854  0.0087
  337ACOH    H411301   5.054   2.609   3.963 -2.2048  1.0630 -0.1830
  337ACOH    O211302   5.083   2.675   3.898  0.3677 -0.2247 -0.3931
  337ACOH    C211303   5.001   2.783   3.908  0.2906  0.1695 -0.3502
  337ACOH    O111304   5.009   2.883   3.831 -0.2382  0.4602  0.1895
  337ACOH    C111305   4.889   2.770   4.005  0.3627 -0.1670  0.0708
  337ACOH    H111306   4.818   2.696   3.968 -1.0054  1.0278  0.2443
  337ACOH    H211307   4.831   2.862   4.009  2.4226  1.4631 -4.3603
  337ACOH    H311308   4.925   2.735   4.102  0.6106  0.5434  0.2445
  338ACOH    H411309   9.276   7.086   0.354  0.1126  1.0186  0.5607
  338ACOH    O211310   9.346   7.114   0.293 -0.0118  0.1368  0.0133
  338ACOH    C211311   9.372   7.245   0.327 -0.6280 -0.2938 -0.0878
  338ACOH    O111312   9.322   7.312   0.417  0.5398 -0.2569  0.3259
  338ACOH    C111313   9.496   7.283   0.262 -0.2833 -0.5976 -0.2594
  338ACOH    H111314   9.538   7.378   0.296 -0.5590 -0.1456 -1.1357
  338ACOH    H211315   9.474   7.285   0.155 -1.1128  3.0341 -0.0659
  338ACOH    H311316   9.575   7.211   0.287  0.7801  0.3267 -0.8687
  342ACOH    H411317   4.168   7.376   4.432  0.8982  0.4824 -1.3396
  342ACOH    O211318   4.241   7.316   4.452  0.0890 -0.2893 -0.6866
  342ACOH    C211319   4.236   7.218   4.365 -0.0209  0.2039 -0.2654
  342ACOH    O111320   4.169   7.211   4.260 -0.4388 -0.1290 -0.1755
  342ACOH    C111321   4.322   7.102   4.402 -0.2483  0.1256  0.2905
  342ACOH    H111322   4.420   7.115   4.358 -0.4320  1.5629  0.2972
  342ACOH    H211323   4.271   7.007   4.382 -1.3288  0.7172  0.1947
  342ACOH    H311324   4.326   7.103   4.511  1.4434 -2.1601  0.2962
  343ACOH    H411325   6.320   1.777   2.096  1.9935 -0.7984 -0.5404
  343ACOH    O211326   6.322   1.859   2.043 -0.3744 -0.1229  0.3586
  343ACOH    C211327   6.319   1.965   2.129 -0.2833  1.0361 -0.4334
  343ACOH    O111328   6.327   1.954   2.249  0.0338 -0.3871  0.0391
  343ACOH    C111329   6.307   2.093   2.058 -0.2488 -0.0823  0.0854
  343ACOH    H111330   6.406   2.120   2.023  0.6808 -3.6301 -0.2114
  343ACOH    H211331   6.265   2.174   2.117 -0.5944  0.3493 -0.7391
  343ACOH    H311332   6.245   2.083   1.969  0.0170 -0.4270 -0.0597
  344ACOH    H411333   7.360   6.053   2.683  3.1099  0.3407 -1.4167
  344ACOH    O211334   7.372   5.959   2.701  0.6894  0.4015  0.8692
  344ACOH    C211335   7.374   5.897   2.583  0.3420  0.2589 -0.3262
  344ACOH    O111336   7.379   5.943   2.477  0.6785 -0.0258 -0.0329
  344ACOH    C111337   7.384   5.752   2.603 -0.7512 -0.6655  0.2971
  344ACOH    H111338   7.467   5.739   2.672 -1.1384  0.8668  1.0540
  344ACOH    H211339   7.410   5.695   2.514 -0.0138  0.0185  0.0688
  344ACOH    H311340   7.290   5.713   2.641 -1.7666 -1.5424 -2.9459
  346ACOH    H411341   2.211   0.185   4.566 -1.7767  0.8873 -0.0443
  346ACOH    O211342   2.163   0.191   4.481 -1.0342  0.2869 -0.5205
  346ACOH    C211343   2.157   0.320   4.450 -0.0338  0.7238 -0.2704
  346ACOH    O111344   2.206   0.414   4.510  0.0244  0.0685  0.2829
  346ACOH    C111345   2.075   0.341   4.329 -0.0848 -0.3894 -0.5641
  346ACOH    H111346   1.973   0.376   4.345  0.0144  0.9841 -2.7173
  346ACOH    H211347   2.075   0.247   4.275  1.1468 -0.4258 -0.5192
  346ACOH    H311348   2.131   0.415   4.271  1.0181 -0.0331  0.9009
  347ACOH    H411349   5.265   1.348   0.561  0.2930 -1.6384 -0.4861
  347ACOH    O211350   5.362   1.356   0.571  0.1683 -0.7307 -0.0105
  347ACOH    C211351   5.424   1.239   0.545  0.4793  0.9092 -0.2931
  347ACOH    O111352   5.363   1.130   0.548  0.5119  0.7676  0.5949
  347ACOH    C111353   5.573   1.250   0.570 -0.5270 -0.1119 -0.0544
  347ACOH    H111354   5.635   1.242   0.481  2.0068 -1.6443  1.7386
  347ACOH    H211355   5.605   1.173   0.640 -0.4044 -0.9906 -1.0745
  347ACOH    H311356   5.587   1.349   0.615 -2.4297 -1.2771  3.2624
  348ACOH    H411357   6.024   8.661   0.903 -1.3357  0.3281 -0.0366
  348ACOH    O211358   6.048   8.722   0.830  0.0964 -0.1441  0.0279
  348ACOH    C211359   5.939   8.763   0.757  0.1101  0.2904  0.2144
  348ACOH    O111360   5.829   8.791   0.802  0.4845 -0.4336  0.1142
  348ACOH    C111361   5.985   8.822   0.627 -0.1657  0.1655  0.7430
  348ACOH    H111362   5.970   8.747   0.549  2.4244  0.7351 -0.3542
  348ACOH    H211363   6.092   8.842   0.623 -0.3805  1.3044  0.1047
  348ACOH    H311364   5.924   8.912   0.611 -0.7459 -0.0984  1.4422
  349ACOH    H411365   7.111   5.583   4.161 -0.6278 -0.3314 -0.5068
  349ACOH    O211366   7.052   5.659   4.156  0.2934  0.3867 -0.4937
  349ACOH    C211367   7.104   5.778   4.115 -0.0373  0.0411 -0.1799
  349ACOH    O111368   7.217   5.809   4.084 -0.4535 -0.8766 -0.7611
  349ACOH    C111369   6.998   5.874   4.096 -0.5036  0.1290  0.4685
  349ACOH    H111370   6.904   5.824   4.120 -1.2824  1.2513 -0.2217
  349ACOH    H211371   6.991   5.926   4.001  1.1194  0.4825  0.5202
  349ACOH    H311372   7.005   5.953   4.171  1.0495 -0.0338  0.5181
  350ACOH    H411373   7.270   2.462   2.070 -0.0391  2.6031  0.3312
  350ACOH    O211374   7.176   2.452   2.046  0.3542  0.1439 -0.2745
  350ACOH    C211375   7.166   2.516   1.932  0.4309  0.8170 -0.5871
  350ACOH    O111376   7.261   2.573   1.874 -0.2104 -0.0386 -0.2969
  350ACOH    C111377   7.028   2.524   1.884 -0.4757 -0.1663  0.6912
  350ACOH    H111378   6.953   2.551   1.958 -1.4181 -1.7463  0.3338
  350ACOH    H211379   7.011   2.421   1.850 -1.2551 -0.4602  1.9550
  350ACOH    H311380   7.025   2.583   1.792 -2.9528 -1.4332 -0.0832
  351ACOH    H411381   8.094   4.048   2.955  0.4744 -0.1543 -0.1345
  351ACOH    O211382   8.093   4.136   2.913 -0.0217 -0.2096 -0.2444
  351ACOH    C211383   8.198   4.208   2.953  0.7254  0.7629 -0.8280
  351ACOH    O111384   8.276   4.172   3.037 -0.1513  0.7209 -0.5773
  351ACOH    C111385   8.213   4.338   2.883  0.3608  0.6840  0.2572
  351ACOH    H111386   8.131   4.356   2.814 -0.8863  0.3038  1.6150
  351ACOH    H211387   8.305   4.329   2.824  1.1628 -0.4795  1.6468
  351ACOH    H311388   8.216   4.423   2.951 -0.3960  0.2548  0.8373
  352ACOH    H411389   5.325   1.975   3.227  0.9226 -2.2227  0.1904
  352ACOH    O211390   5.417   2.004   3.235  0.2750 -0.1065  0.1924
  352ACOH    C211391   5.419   2.128   3.196 -0.1637 -0.5045 -0.6897
  352ACOH    O111392   5.329   2.190   3.141 -0.2222 -1.0050 -0.0986
  352ACOH    C111393   5.547   2.200   3.231 -0.2881  0.1572 -0.3915
  352ACOH    H111394   5.524   2.282   3.299  1.1680 -0.1074  0.4498
  352ACOH    H211395   5.601   2.241   3.146  0.6893 -1.4374 -0.5810
  352ACOH    H311396   5.614   2.139   3.293 -1.7922 -1.1951 -0.0385
  353ACOH    H411397   8.143   8.251   1.103 -0.2579  0.2485 -2.7639
  353ACOH    O211398   8.127   8.155   1.094 -0.0332 -0.1466  0.4413
  353ACOH    C211399   8.134   8.127   0.964 -0.7780  0.1246 -0.0100
  353ACOH    O111400   8.150   8.193   0.865 -0.2452  0.2386 -0.4626
  353ACOH    C111401   8.094   7.987   0.961 -0.4144  0.3523  0.9693
  353ACOH    H111402   8.039   7.952   1.049  2.0283 -0.6124  2.1783
  353ACOH    H211403   8.190   7.935   0.964 -1.3044 -1.5043 -1.0316
  353ACOH    H311404   8.054   7.960   0.864  1.8629  1.4191 -0.2962
  354ACOH    H411405   2.162   6.433   4.535 -0.3311 -0.0075 -2.2271
  354ACOH    O211406   2.078   6.388   4.553 -0.1430  0.3692 -0.2740
  354ACOH    C211407   1.993   6.455   4.640  0.2852 -0.1106 -0.1067
  354ACOH    O111408   2.017   6.562   4.696 -0.3242  0.0420  0.7060
  354ACOH    C111409   1.858   6.395   4.657  0.0107 -0.4622 -0.0641
  354ACOH    H111410   1.854   6.306   4.595  1.0814 -0.1320 -0.6117
  354ACOH    H211411   1.785   6.470   4.624  2.2089  1.7652 -0.0059
  354ACOH    H311412   1.839   6.369   4.761  1.0842  0.2302  0.3093
  355ACOH    H411413   5.269   6.457   1.821 -0.0355 -0.0676 -0.5201
  355ACOH    O211414   5.324   6.399   1.766  0.1786 -0.7093  0.3694
  355ACOH    C211415   5.429   6.461   1.709  0.0348 -0.2396  0.3982
  355ACOH    O111416   5.446   6.582   1.699 -0.2070 -0.1163  0.1914
  355ACOH    C111417   5.499   6.358   1.624  0.3780  0.2144  0.3443
  355ACOH    H111418   5.604   6.388   1.621  1.3968 -2.9455  2.4259
  355ACOH    H211419   5.456   6.368   1.525 -0.2858 -0.7698  0.5258
  355ACOH    H311420   5.493   6.254   1.655  1.0640 -1.1162 -3.7197
  357ACOH    H411421   7.749   1.797   4.451  0.2673 -0.1397 -0.4016
  357ACOH    O211422   7.794   1.867   4.502 -0.5352  0.0113  0.1075
  357ACOH    C211423   7.744   1.857   4.627  0.2393 -0.0841  0.6985
  357ACOH    O111424   7.658   1.790   4.671 -0.0919  0.3099 -0.0739
  357ACOH    C111425   7.825   1.957   4.703  0.5062 -0.2519 -0.4272
  357ACOH    H111426   7.927   1.924   4.688  0.4717 -1.2692  1.4208
  357ACOH    H211427   7.803   1.964   4.810  0.3999  1.9078 -0.5511
  357ACOH    H311428   7.816   2.056   4.658 -0.2443 -0.5646 -0.9834
  358ACOH    H411429   8.025   3.786   3.201  1.3115  1.9023 -0.5999
  358ACOH    O211430   8.005   3.749   3.113 -0.1306 -0.1867  0.5514
  358ACOH    C211431   7.989   3.618   3.130 -0.2955  0.3270  0.1159
  358ACOH    O111432   7.990   3.551   3.230  0.1934 -0.0520 -0.2625
  358ACOH    C111433   7.999   3.566   2.991 -0.8389 -0.2647 -0.0213
  358ACOH    H111434   7.908   3.591   2.936 -1.2032  1.1586  1.2186
  358ACOH    H211435   8.015   3.458   2.991 -0.0710 -0.1554 -0.5502
  358ACOH    H311436   8.085   3.611   2.942 -0.8220  1.2241  1.3370
  359ACOH    H411437   6.920   1.880   3.461 -1.0277 -1.0172  0.1953
  359ACOH    O211438   6.905   1.912   3.552 -0.1585 -0.0520  0.0082
  359ACOH    C211439   6.776   1.877   3.587 -0.4392 -0.1064  0.1254
  359ACOH    O111440   6.696   1.829   3.510  0.4860  0.2342  0.5023
  359ACOH    C111441   6.758   1.881   3.738  0.1328 -0.4466 -0.2904
  359ACOH    H111442   6.772   1.981   3.778  0.4943 -1.1699  1.4739
  359ACOH    H211443   6.812   1.803   3.793 -0.4856 -0.5403  0.1811
  359ACOH    H311444   6.654   1.860   3.759 -0.1963  0.1070 -1.3423
  360ACOH    H411445   5.670   1.744   2.041  0.1870 -3.3732  0.4755
  360ACOH    O211446   5.733   1.745   1.966 -0.3881 -0.1335 -0.0376
  360ACOH    C211447   5.851   1.785   2.024 -0.3071  0.1030 -0.2682
  360ACOH    O111448   5.873   1.814   2.141 -0.2127 -0.4788  0.1133
  360ACOH    C111449   5.958   1.788   1.924 -0.1316  0.2995  0.4301
  360ACOH    H111450   6.058   1.809   1.960 -0.1932  0.9539  0.2282
  360ACOH    H211451   5.941   1.868   1.851  1.3359  0.9022  0.7194
  360ACOH    H311452   5.955   1.693   1.870 -0.2075 -0.0095  0.9820
  361ACOH    H411453   7.507   1.797   0.036  0.0041 -0.3763 -1.5022
  361ACOH    O211454   7.427   1.852   0.040 -0.0273 -0.5154  0.0996
  361ACOH    C211455   7.351   1.805   0.137  0.4571 -0.3308  0.5807
  361ACOH    O111456   7.384   1.734   0.236 -0.4275 -0.4163  0.8758
  361ACOH    C111457   7.229   1.886   0.149  0.0485  0.5390 -0.5424
  361ACOH    H111458   7.244   1.975   0.209 -2.1384  0.1581  0.6241
  361ACOH    H211459   7.148   1.824   0.190  1.5157 -0.2677  1.2241
  361ACOH    H311460   7.200   1.919   0.050 -2.0446 -0.4616 -0.2877
  363ACOH    H411461   7.805   3.284   3.982  1.9882 -0.4691  0.3610
  363ACOH    O211462   7.831   3.363   3.932 -0.3923 -0.2211 -0.5751
  363ACOH    C211463   7.797   3.473   4.000  0.5979 -1.1148  0.4366
  363ACOH    O111464   7.727   3.472   4.100 -0.4996  0.1119  0.1772
  363ACOH    C111465   7.872   3.585   3.949  0.3433  0.1483 -0.5920
  363ACOH    H111466   7.806   3.671   3.952  0.2826  0.0808 -0.0216
  363ACOH    H211467   7.914   3.573   3.849 -1.0087 -3.9625 -0.7768
  363ACOH    H311468   7.951   3.593   4.024 -0.2673  0.0076  0.0666
  364ACOH    H411469   4.266   4.243   3.335  1.8702 -2.2424 -2.5925
  364ACOH    O211470   4.180   4.220   3.295  0.2421 -0.5464 -0.2496
  364ACOH    C211471   4.092   4.305   3.355  0.0729 -0.4688  1.0651
  364ACOH    O111472   4.111   4.367   3.459  0.3760 -0.1217 -0.4427
  364ACOH    C111473   3.969   4.293   3.276 -0.5697  0.8825 -0.2355
  364ACOH    H111474   3.919   4.200   3.302 -0.1167  0.4511 -0.9196
  364ACOH    H211475   3.993   4.279   3.171 -0.6795 -2.6407  0.1598
  364ACOH    H311476   3.894   4.370   3.295 -1.5276 -0.1114  0.0895
  365ACOH    H411477   6.936   6.499   3.973  2.5377 -0.3213  0.8282
  365ACOH    O211478   6.901   6.442   4.044 -0.2823  0.0013 -0.2358
  365ACOH    C211479   6.809   6.364   3.988  0.4294  0.2209  0.6590
  365ACOH    O111480   6.721   6.406   3.908 -0.1266  0.6734 -0.4160
  365ACOH    C111481   6.792   6.236   4.064  0.4881 -0.7561  0.5406
  365ACOH    H111482   6.891   6.214   4.105  2.0478  4.1672 -0.2853
  365ACOH    H211483   6.760   6.169   3.984 -0.8886  0.5003  0.0108
  365ACOH    H311484   6.724   6.234   4.149 -0.1938  1.4022  0.0851
  367ACOH    H411485   6.769   7.546   2.771  0.5510  0.2165 -0.6602
  367ACOH    O211486   6.761   7.561   2.867  0.1355 -0.3154 -0.6097
  367ACOH    C211487   6.685   7.664   2.879  0.1034 -0.6097 -0.1516
  367ACOH    O111488   6.671   7.754   2.800  0.1052  0.2012 -0.0532
  367ACOH    C111489   6.654   7.698   3.019 -0.5031 -0.5427  0.0026
  367ACOH    H111490   6.563   7.758   3.019  0.9441  1.7380  1.6779
  367ACOH    H211491   6.729   7.762   3.065 -1.7801  0.0136  1.3145
  367ACOH    H311492   6.651   7.604   3.075 -0.3766  0.4771  1.7420
  368ACOH    H411493   4.691   8.668   1.367  0.7596 -1.4032  2.2634
  368ACOH    O211494   4.639   8.749   1.381  1.1917 -0.7202  0.0354
  368ACOH    C211495   4.674   8.805   1.493 -0.3540  0.5141 -0.0463
  368ACOH    O111496   4.780   8.798   1.551 -0.2893 -0.3127  0.0676
  368ACOH    C111497   4.592   8.917   1.523 -0.0393  0.0093 -0.7979
  368ACOH    H111498   4.495   8.916   1.474  0.3612  2.5841 -1.7109
  368ACOH    H211499   4.638   9.015   1.516 -0.9286  0.5301  0.3996
  368ACOH    H311500   4.567   8.901   1.628  2.2673 -1.5920 -0.4664
  369ACOH    H411501   8.620   9.174   5.719 -0.6917  2.6570 -4.4454
  369ACOH    O211502   8.640   9.101   5.658 -0.2937 -0.3487 -0.9560
  369ACOH    C211503   8.547   9.115   5.561  0.2694 -0.2853 -0.4634
  369ACOH    O111504   8.457   9.195   5.560  0.0305 -0.7124  0.0322
  369ACOH    C111505   8.568   9.012   5.461 -0.3242 -0.2001  0.0945
  369ACOH    H111506   8.559   8.917   5.514  1.7644 -0.2982  0.2962
  369ACOH    H211507   8.658   9.028   5.401 -0.7733  0.8025 -0.3234
  369ACOH    H311508   8.481   9.013   5.395  0.6703  1.0207 -1.2334
  370ACOH    H411509   4.232   8.698   4.546  1.6333  0.9048 -1.3127
  370ACOH    O211510   4.291   8.637   4.591 -0.6675 -0.6234 -0.2692
  370ACOH    C211511   4.392   8.717   4.627  0.2445  0.3626 -0.8478
  370ACOH    O111512   4.425   8.823   4.580  0.0977 -0.4696  0.0829
  370ACOH    C111513   4.473   8.641   4.723  0.3911 -0.0502  0.4525
  370ACOH    H111514   4.544   8.716   4.759 -0.8601  0.7374  1.3442
  370ACOH    H211515   4.524   8.555   4.680 -0.3326 -0.5712  0.6264
  370ACOH    H311516   4.415   8.602   4.807  1.7882  0.8300  1.8525
  371ACOH    H411517   5.698   1.187   4.488  0.7675  1.6095 -1.5296
  371ACOH    O211518   5.773   1.126   4.479  0.0752  0.4251  0.4874
  371ACOH    C211519   5.756   1.047   4.587 -0.4220 -0.0554  0.2320
  371ACOH    O111520   5.705   1.085   4.689 -0.2016 -0.0628 -0.3279
  371ACOH    C111521   5.860   0.943   4.582 -0.4395  0.0710 -0.4506
  371ACOH    H111522   5.955   0.979   4.621 -1.7910  3.6139 -0.1798
  371ACOH    H211523   5.877   0.923   4.476 -0.1716  1.7461 -0.7480
  371ACOH    H311524   5.832   0.855   4.639 -2.4538  1.6518  1.0920
  372ACOH    H411525   5.090   1.563   1.961  0.1889  0.6339 -0.8835
  372ACOH    O211526   5.018   1.537   1.900  0.1977 -0.4689 -0.4352
  372ACOH    C211527   4.949   1.648   1.891 -0.3990 -0.0838 -0.4034
  372ACOH    O111528   4.977   1.754   1.949 -0.1895  0.2516 -0.2187
  372ACOH    C111529   4.844   1.652   1.784  0.8831  0.4023 -0.1884
  372ACOH    H111530   4.879   1.701   1.693 -2.1640  2.6080 -0.2329
  372ACOH    H211531   4.751   1.692   1.824  0.2896 -1.6968  0.6154
  372ACOH    H311532   4.825   1.545   1.774  0.4512  0.3386  1.2158
  373ACOH    H411533   7.222   6.232   3.120 -0.0683  3.6484  1.5560
  373ACOH    O211534   7.281   6.207   3.193  0.6718  0.2767 -0.1118
  373ACOH    C211535   7.376   6.127   3.145  0.0076 -0.3764  0.1544
  373ACOH    O111536   7.382   6.066   3.042  0.4079 -0.3624 -0.1623
  373ACOH    C111537   7.480   6.104   3.247  0.2491  0.2395 -0.3820
  373ACOH    H111538   7.435   6.058   3.335 -0.7268 -1.2188 -1.6152
  373ACOH    H211539   7.515   6.200   3.284 -0.7622  1.4793 -2.5473
  373ACOH    H311540   7.561   6.038   3.217 -0.5462 -2.2831  2.6615
  374ACOH    H411541   7.538   7.628   2.571 -0.1962 -0.4191 -0.1979
  374ACOH    O211542   7.516   7.570   2.646 -0.1309  0.3459  0.4150
  374ACOH    C211543   7.504   7.648   2.758  0.1747 -0.7123 -0.2626
  374ACOH    O111544   7.589   7.734   2.783 -0.3625 -0.1686  0.7448
  374ACOH    C111545   7.433   7.582   2.872  0.7288  0.1298 -0.2759
  374ACOH    H111546   7.331   7.564   2.837  0.7210 -0.1003 -0.1329
  374ACOH    H211547   7.425   7.646   2.959  2.5455 -1.6313  1.2367
  374ACOH    H311548   7.475   7.484   2.898  1.0098  0.4697  0.5438
  375ACOH    H411549   4.531   8.053   0.243 -1.7135 -2.2302 -0.6466
  375ACOH    O211550   4.566   8.000   0.317  0.0914  0.1086  0.2293
  375ACOH    C211551   4.500   7.883   0.305 -0.8364 -0.0376  0.1808
  375ACOH    O111552   4.414   7.863   0.219  0.1248 -0.0673  0.1195
  375ACOH    C111553   4.544   7.780   0.397 -0.3794 -0.3821 -0.1081
  375ACOH    H111554   4.501   7.685   0.366 -0.7428  0.0693 -1.0172
  375ACOH    H211555   4.500   7.807   0.492 -1.2127 -0.9407 -0.3385
  375ACOH    H311556   4.653   7.767   0.399 -0.1917  0.4266 -2.6257
  376ACOH    H411557   8.223   4.619   1.531  0.3818 -0.7658 -1.0480
  376ACOH    O211558   8.278   4.678   1.477 -0.2388  0.4295 -0.4059
  376ACOH    C211559   8.214   4.797   1.471 -0.0251 -0.2291  0.6306
  376ACOH    O111560   8.095   4.810   1.477 -0.1105 -0.3429 -0.4102
  376ACOH    C111561   8.310   4.897   1.431 -0.2096  0.6938 -0.5082
  376ACOH    H111562   8.393   4.908   1.501 -0.1230 -1.9820 -0.1510
  376ACOH    H211563   8.253   4.990   1.435 -1.9746 -0.4401  2.0626
  376ACOH    H311564   8.347   4.876   1.330  0.4769 -1.9066  0.2341
  377ACOH    H411565   3.550   5.725   4.518 -0.9217 -0.2719 -0.0588
  377ACOH    O211566   3.566   5.817   4.490  0.4833 -0.4132  0.2434
  377ACOH    C211567   3.516   5.835   4.365 -0.2451 -0.0897 -0.3085
  377ACOH    O111568   3.450   5.753   4.311 -0.2840 -0.6311 -0.2643
  377ACOH    C111569   3.533   5.976   4.313 -0.0394  0.4341 -0.2442
  377ACOH    H111570   3.533   6.038   4.403 -0.4668 -0.5881  0.4636
  377ACOH    H211571   3.454   5.997   4.240  0.4536  1.8275 -0.3880
  377ACOH    H311572   3.630   5.989   4.265 -0.0967  0.8461 -0.2541
  379ACOH    H411573   5.039   3.323   3.321 -0.7210 -1.6417 -0.2534
  379ACOH    O211574   5.120   3.272   3.332  0.2155 -0.1268  0.0023
  379ACOH    C211575   5.206   3.341   3.410  0.3518 -0.3150  0.1515
  379ACOH    O111576   5.194   3.459   3.440 -0.3425 -0.7495  0.3747
  379ACOH    C111577   5.312   3.255   3.459  0.2115 -0.6056  0.0802
  379ACOH    H111578   5.396   3.322   3.473  1.6392 -2.2997 -0.2563
  379ACOH    H211579   5.342   3.173   3.393  0.9565  0.4244 -0.8835
  379ACOH    H311580   5.274   3.209   3.550  1.8610 -3.4945 -0.6282
  380ACOH    H411581   5.043   8.953   5.652 -0.7567  1.2149 -0.4992
  380ACOH    O211582   5.075   9.044   5.639 -0.2779  1.0847 -0.2248
  380ACOH    C211583   4.975   9.107   5.576 -0.1547 -0.4484  0.8835
  380ACOH    O111584   4.857   9.079   5.590  0.4300 -0.3434 -0.1192
  380ACOH    C111585   5.024   9.243   5.533 -0.4708  0.3634 -0.7234
  380ACOH    H111586   4.936   9.305   5.517  0.2973  1.4203 -0.9283
  380ACOH    H211587   5.087   9.235   5.444  0.6531  0.4980  0.0439
  380ACOH    H311588   5.088   9.288   5.610  1.4041  1.4894 -2.8497
  381ACOH    H411589   7.675   7.784   4.266 -0.1114 -0.7973 -0.9567
  381ACOH    O211590   7.587   7.744   4.274 -0.2551 -0.2637  0.2624
  381ACOH    C211591   7.612   7.612   4.256 -0.2086  0.1316 -0.4381
  381ACOH    O111592   7.726   7.565   4.239  0.0009  0.0068 -0.2069
  381ACOH    C111593   7.488   7.524   4.266 -0.2926 -0.9462  0.2221
  381ACOH    H111594   7.527   7.427   4.234  0.6533 -0.3102 -0.5985
  381ACOH    H211595   7.416   7.551   4.190  0.1635 -0.6075 -0.0944
  381ACOH    H311596   7.439   7.517   4.363 -0.8331  0.1698  0.0293
  382ACOH    H411597   4.869   4.857   0.332  5.2095  0.1645  3.8035
  382ACOH    O211598   4.917   4.814   0.260  0.1038 -0.1586  0.3512
  382ACOH    C211599   5.003   4.744   0.332 -0.2714  0.2304  0.7190
  382ACOH    O111600   4.994   4.685   0.436  0.2512 -0.7050  0.6016
  382ACOH    C111601   5.119   4.706   0.241  0.7942  0.2205 -0.3007
  382ACOH    H111602   5.081   4.672   0.145 -1.3551 -1.6833  1.1719
  382ACOH    H211603   5.182   4.635   0.294  0.0843 -0.5889 -0.5326
  382ACOH    H311604   5.164   4.803   0.221  1.2368  0.5827  2.2026
  383ACOH    H411605   5.135   0.380   1.099 -3.4310 -0.7515 -3.1366
  383ACOH    O211606   5.086   0.458   1.131 -0.3278  0.1103 -0.2381
  383ACOH    C211607   5.068   0.542   1.036 -0.4937 -0.7182  0.5734
  383ACOH    O111608   5.086   0.511   0.921 -0.6722 -0.1095 -0.4198
  383ACOH    C111609   5.001   0.675   1.076  0.1532 -0.1179  0.2223
  383ACOH    H111610   5.016   0.689   1.184  0.2594  4.1162 -0.2657
  383ACOH    H211611   4.896   0.664   1.051  0.5753 -2.8228 -0.5239
  383ACOH    H311612   5.049   0.762   1.030  0.4352  1.4087  3.2200
  384ACOH    H411613   6.677   1.702   4.111 -0.4048 -0.1819  0.1924
  384ACOH    O211614   6.702   1.720   4.203  0.0866  0.2767 -0.0258
  384ACOH    C211615   6.796   1.631   4.245 -0.6493 -0.3960  0.4809
  384ACOH    O111616   6.842   1.545   4.175 -0.2025  0.7151 -0.2387
  384ACOH    C111617   6.822   1.661   4.390  0.2575 -0.0371  0.5015
  384ACOH    H111618   6.808   1.768   4.407 -1.0882  0.1238 -1.4938
  384ACOH    H211619   6.926   1.635   4.412  0.4490  0.2799 -0.0294
  384ACOH    H311620   6.751   1.608   4.453 -0.0652  1.2057  1.1964
  385ACOH    H411621   6.942   6.225   2.412 -1.6866  1.1544 -0.4161
  385ACOH    O211622   6.948   6.183   2.325 -0.0478  0.2608  0.1020
  385ACOH    C211623   7.068   6.127   2.341 -0.2216  0.9079  0.0887
  385ACOH    O111624   7.152   6.172   2.417 -0.3718  0.1120 -0.8322
  385ACOH    C111625   7.101   6.051   2.216 -0.0371  0.0537 -0.2103
  385ACOH    H111626   7.179   5.979   2.240 -0.3060 -0.4650 -0.8860
  385ACOH    H211627   7.147   6.119   2.145  0.7101 -0.9011 -0.6478
  385ACOH    H311628   7.013   6.002   2.176 -0.8285  0.7996  0.5846
  386ACOH    H411629   0.246   7.555   0.603  1.4382  0.6204  0.3067
  386ACOH    O211630   0.275   7.462   0.613 -0.3270 -0.0098 -0.2611
  386ACOH    C211631   0.223   7.379   0.523  0.3480 -0.0822 -0.2690
  386ACOH    O111632   0.138   7.419   0.440 -0.3939  0.6868 -0.1561
  386ACOH    C111633   0.274   7.241   0.539  0.5041  0.0247 -0.0758
  386ACOH    H111634   0.245   7.176   0.457 -1.1408 -0.4464  0.8652
  386ACOH    H211635   0.233   7.205   0.633 -1.4834 -1.5111 -1.5036
  386ACOH    H311636   0.382   7.233   0.554  0.5580 -0.1808 -0.5718
  387ACOH    H411637   8.241   8.589   0.344 -0.1507 -0.1790 -0.2191
  387ACOH    O211638   8.286   8.513   0.383  0.0460  0.0250 -0.0432
  387ACOH    C211639   8.263   8.517   0.515 -0.6731 -0.0952  0.5346
  387ACOH    O111640   8.208   8.605   0.576 -0.2046  0.3947 -0.7262
  387ACOH    C111641   8.336   8.406   0.582 -0.3692 -0.5148  0.1091
  387ACOH    H111642   8.273   8.319   0.565 -0.1528  0.1004 -4.3608
  387ACOH    H211643   8.347   8.426   0.688  0.3616  0.1322 -0.0875
  387ACOH    H311644   8.438   8.401   0.543  0.2579  0.9220  1.4932
  388ACOH    H411645   4.699   2.575   1.203 -0.8136  0.6761  2.0124
  388ACOH    O211646   4.789   2.613   1.214 -0.2878  0.1713 -0.2983
  388ACOH    C211647   4.875   2.516   1.167  0.2505 -0.4373  0.4929
  388ACOH    O111648   4.842   2.424   1.103 -0.2076 -0.0621 -0.2821
  388ACOH    C111649   5.015   2.567   1.190 -0.4312 -0.8027  0.1108
  388ACOH    H111650   5.084   2.485   1.208 -1.5029 -1.7786 -0.1710
  388ACOH    H211651   5.012   2.640   1.271  2.2224  3.2014 -3.1966
  388ACOH    H311652   5.057   2.626   1.109  1.7446 -0.1696  1.6555
  389ACOH    H411653   6.674   0.285   1.912 -1.3836 -2.6620 -0.9080
  389ACOH    O211654   6.611   0.338   1.860  0.2331 -0.0849 -0.2982
  389ACOH    C211655   6.598   0.266   1.752  0.0896 -0.0769  1.0025
  389ACOH    O111656   6.629   0.148   1.730  0.0961 -0.3154  0.1778
  389ACOH    C111657   6.500   0.345   1.665 -0.3726  0.2943 -0.0356
  389ACOH    H111658   6.420   0.390   1.723 -1.2130 -0.7710 -0.3670
  389ACOH    H211659   6.460   0.285   1.584 -0.1963  3.4387 -2.5477
  389ACOH    H311660   6.549   0.426   1.611 -1.0006  0.4714 -0.3399
  390ACOH    H411661   3.574   5.692   0.445 -1.1271 -1.5815  1.2242
  390ACOH    O211662   3.645   5.626   0.450 -0.0701 -0.5665  0.0641
  390ACOH    C211663   3.578   5.513   0.420  0.4285  0.2258 -0.5545
  390ACOH    O111664   3.470   5.511   0.360 -0.6270  0.2234  0.4410
  390ACOH    C111665   3.665   5.398   0.434 -0.0601  0.0637  0.2141
  390ACOH    H111666   3.696   5.356   0.338 -0.6330  0.7531 -0.2653
  390ACOH    H211667   3.622   5.314   0.488 -0.2391  0.7178  1.0844
  390ACOH    H311668   3.758   5.418   0.487 -1.0781  1.7393  1.3889
  391ACOH    H411669   6.723   1.015   0.957  1.5086  0.2290  0.2418
  391ACOH    O211670   6.686   1.022   0.867  0.1423 -0.3110  0.7561
  391ACOH    C211671   6.760   1.098   0.787  0.1055 -0.2262 -0.1114
  391ACOH    O111672   6.846   1.172   0.816  0.2036 -0.3081 -0.5731
  391ACOH    C111673   6.707   1.102   0.646  0.1756  1.2826  0.2191
  391ACOH    H111674   6.771   1.038   0.584 -2.7339  1.0488 -2.6451
  391ACOH    H211675   6.712   1.207   0.617 -0.5681  0.5132 -2.8949
  391ACOH    H311676   6.604   1.069   0.644  0.0276  1.6797  1.1559
  393ACOH    H411677   8.618   7.330   4.498  0.1432  1.0636 -2.0876
  393ACOH    O211678   8.709   7.294   4.491  0.0318  0.3080 -0.0525
  393ACOH    C211679   8.775   7.366   4.402 -0.0437 -0.3480  0.0091
  393ACOH    O111680   8.749   7.483   4.367  0.3717 -0.2814 -0.7504
  393ACOH    C111681   8.876   7.288   4.329  0.2136  0.0373  0.2445
  393ACOH    H111682   8.973   7.338   4.333 -0.5130  1.3962  1.5223
  393ACOH    H211683   8.841   7.278   4.227  0.6533  2.1252 -0.1468
  393ACOH    H311684   8.889   7.188   4.370  0.7243 -0.4911 -1.1916
  394ACOH    H411685   7.106   6.418   2.814  0.8206  0.2804 -1.8362
  394ACOH    O211686   7.097   6.332   2.770 -0.3024 -0.4236 -0.2782
  394ACOH    C211687   7.111   6.237   2.863 -0.0629  0.9195  0.7915
  394ACOH    O111688   7.118   6.259   2.983 -0.4640  0.1304  0.0935
  394ACOH    C111689   7.092   6.101   2.800 -0.6268 -0.1725  0.2774
  394ACOH    H111690   7.116   6.015   2.862 -0.9581 -0.6092 -0.2006
  394ACOH    H211691   7.147   6.089   2.707 -1.9162 -2.8219 -0.1725
  394ACOH    H311692   6.986   6.091   2.775 -0.4028  1.1378 -1.2715
  397ACOH    H411693   4.218   5.133   1.195 -2.8844 -1.7149 -0.1281
  397ACOH    O211694   4.227   5.129   1.099 -0.6004  0.0038 -0.0181
  397ACOH    C211695   4.299   5.018   1.070  0.6755 -0.5657  0.0714
  397ACOH    O111696   4.325   4.924   1.144  0.1126  1.0094  0.0030
  397ACOH    C111697   4.337   5.025   0.925  0.2042  0.5701 -1.1114
  397ACOH    H111698   4.249   5.026   0.861  0.3854 -0.0751 -1.3668
  397ACOH    H211699   4.406   4.949   0.891  0.8429  0.4763  0.3285
  397ACOH    H311700   4.384   5.123   0.915 -2.1584  1.7956 -0.6744
  399ACOH    H411701   5.221   3.552   0.876 -0.8877  0.2916  0.9735
  399ACOH    O211702   5.252   3.480   0.934  0.4204 -0.2492 -0.3510
  399ACOH    C211703   5.317   3.549   1.031  0.4576  0.5332  0.2850
  399ACOH    O111704   5.321   3.672   1.030  0.1764  0.4768  0.1116
  399ACOH    C111705   5.386   3.445   1.121 -0.4280 -0.0517 -1.1309
  399ACOH    H111706   5.306   3.398   1.178 -0.0678  0.2021 -0.4154
  399ACOH    H211707   5.460   3.490   1.187 -0.9480  1.7114 -1.7326
  399ACOH    H311708   5.441   3.372   1.061 -0.2342 -0.7472 -0.1319
  400ACOH    H411709   3.601   4.520   3.146  0.1086 -0.3728 -0.7328
  400ACOH    O211710   3.662   4.593   3.127  0.3589 -0.3694  0.0601
  400ACOH    C211711   3.735   4.614   3.234  0.3859 -1.1479  0.2329
  400ACOH    O111712   3.746   4.561   3.337  0.1416 -0.0885  0.2863
  400ACOH    C111713   3.806   4.744   3.204  0.0571 -0.2268  0.2493
  400ACOH    H111714   3.903   4.740   3.254 -0.6904 -2.0110  1.6597
  400ACOH    H211715   3.748   4.821   3.255 -1.4964 -1.0795 -0.1971
  400ACOH    H311716   3.817   4.755   3.097 -1.0397 -0.5057  0.0975
  402ACOH    H411717   1.814   2.361   3.310 -0.7247 -1.3507  0.4820
  402ACOH    O211718   1.726   2.396   3.284 -0.2357 -0.1969  0.3490
  402ACOH    C211719   1.748   2.476   3.177 -0.6824  0.5428  0.5593
  402ACOH    O111720   1.857   2.517   3.144  0.2525 -0.0218 -0.1821
  402ACOH    C111721   1.634   2.537   3.109  0.7236  0.1998 -0.6538
  402ACOH    H111722   1.660   2.615   3.037  1.4031  0.7216  0.1351
  402ACOH    H211723   1.565   2.568   3.188 -0.0285  0.4407 -1.4031
  402ACOH    H311724   1.583   2.457   3.055  1.4762 -1.9715  1.7237
  403ACOH    H411725   4.563   6.304   0.915 -1.9042 -0.4408 -0.3484
  403ACOH    O211726   4.583   6.248   0.838  0.0878  0.1072 -0.2539
  403ACOH    C211727   4.659   6.150   0.874  0.1491 -0.1699  0.8125
  403ACOH    O111728   4.672   6.107   0.982 -0.4075 -0.4344  0.1937
  403ACOH    C111729   4.689   6.074   0.749 -0.4107 -0.2867 -0.4656
  403ACOH    H111730   4.618   6.087   0.667 -0.0574  1.0079 -0.5804
  403ACOH    H211731   4.708   5.972   0.782  0.9898 -0.5518 -2.0140
  403ACOH    H311732   4.784   6.106   0.704 -1.0531  1.4749 -0.6042
  405ACOH    H411733   5.419   5.729   1.254 -2.1518  0.3323  2.5785
  405ACOH    O211734   5.481   5.796   1.287  0.3688 -0.3228 -0.5298
  405ACOH    C211735   5.416   5.906   1.242  0.0197  0.1294 -0.3901
  405ACOH    O111736   5.335   5.915   1.151  0.0372  0.1568  0.2420
  405ACOH    C111737   5.461   6.026   1.318 -0.0916  0.2082 -0.0294
  405ACOH    H111738   5.569   6.015   1.325 -0.1061 -2.1787 -2.8777
  405ACOH    H211739   5.412   6.029   1.415  0.5500  2.0167  0.2729
  405ACOH    H311740   5.443   6.113   1.254  0.8850 -2.2132 -3.7328
  406ACOH    H411741   9.409   7.478  -0.058 -0.9976  1.2609 -0.6121
  406ACOH    O211742   9.360   7.481   0.026  0.1232 -0.3134  0.1347
  406ACOH    C211743   9.235   7.461  -0.010 -0.5658  0.0070  0.9258
  406ACOH    O111744   9.180   7.495  -0.112 -0.2950 -0.4168 -0.0177
  406ACOH    C111745   9.155   7.421   0.108  0.0442 -0.2667  0.4614
  406ACOH    H111746   9.170   7.320   0.145 -0.5380 -0.3489  0.4866
  406ACOH    H211747   9.052   7.432   0.074 -0.0229 -0.9687  0.4421
  406ACOH    H311748   9.159   7.500   0.184 -4.7143  0.5269  0.0385
  407SOL     OW11749   1.195   2.986   1.647  0.2255 -0.7796 -0.1611
  407SOL    HW111750   1.146   2.947   1.726 -2.6208  0.9256 -1.0400
  407SOL    HW211751   1.268   3.046   1.680 -1.5743  0.7042  1.2216
  409SOL     OW11752   9.852   3.243   4.142 -0.0336 -0.1976 -0.0464
  409SOL    HW111753   9.945   3.281   4.132 -0.2303  0.1064 -0.7693
  409SOL    HW211754   9.848   3.154   4.098  0.5226 -1.2375  1.9537
  410SOL     OW11755   2.784   7.592   3.941  0.0296  0.1826  0.0900
  410SOL    HW111756   2.829   7.599   4.029 -1.2772 -0.3722  0.8133
  410SOL    HW211757   2.690   7.626   3.948 -0.6931 -1.6149 -0.6197
  411SOL     OW11758   9.061   5.022   0.530 -0.2772  0.6190 -0.2169
  411SOL    HW111759   8.969   5.052   0.504 -0.2103  0.6723 -0.3865
  411SOL    HW211760   9.053   4.942   0.589 -0.3870 -0.1077 -1.2065
  413SOL     OW11761   4.636   6.991   1.882 -0.0289 -0.0390 -0.4658
  413SOL    HW111762   4.619   7.003   1.784  1.6084  1.3503 -0.6001
  413SOL    HW211763   4.587   7.062   1.933 -1.3030 -1.0740 -0.2161
  414SOL     OW11764   8.401   9.865   0.900 -0.4398 -0.1245 -0.3027
  414SOL    HW111765   8.322   9.881   0.959  0.3871  0.0689  0.7638
  414SOL    HW211766   8.480   9.913   0.937  0.6706 -1.9754 -0.2435
  416SOL     OW11767   9.725   9.060   0.539  0.2559  0.3821 -0.2574
  416SOL    HW111768   9.707   8.982   0.480  1.4535 -0.0335 -0.0803
  416SOL    HW211769   9.801   9.039   0.601 -0.8158  0.8972  1.2690
  418SOL     OW11770   8.462   1.158   0.703  0.3573  0.7033  0.5825
  418SOL    HW111771   8.484   1.200   0.614  0.2359  2.4662  1.3776
  418SOL    HW211772   8.547   1.141   0.753  0.2935  1.5844  0.9827
  419SOL     OW11773   7.624   2.373   2.945 -0.4287  0.5469 -0.1774
  419SOL    HW111774   7.709   2.396   2.898  0.5207 -0.6382  0.9199
  419SOL    HW211775   7.638   2.292   3.001 -2.1685  0.6007  0.3638
  421SOL     OW11776   8.721   1.185   2.853 -0.1918 -0.4090  0.2036
  421SOL    HW111777   8.700   1.164   2.949  1.8333  0.8711  0.9590
  421SOL    HW211778   8.724   1.284   2.840 -2.0855 -0.5487 -1.5907
  422SOL     OW11779   5.926   0.756   3.474  0.5077  0.1164  0.5040
  422SOL    HW111780   5.985   0.676   3.483  0.0602 -0.1115  1.4902
  422SOL    HW211781   5.983   0.837   3.458  1.0450 -0.2096  0.7256
  423SOL     OW11782   3.819   7.878   1.410 -0.0468 -0.1106 -0.1899
  423SOL    HW111783   3.803   7.961   1.465  0.7999 -0.4660  0.6002
  423SOL    HW211784   3.906   7.887   1.361  1.7545 -1.9415  2.5609
  424SOL     OW11785   9.483   8.671   1.108 -0.2365 -0.0594  0.7418
  424SOL    HW111786   9.409   8.646   1.045  1.2636  1.5094 -1.7004
  424SOL    HW211787   9.462   8.758   1.152 -0.2569 -0.0960  0.8048
  427SOL     OW11788   8.409   8.119   2.273  0.6341 -0.6938 -0.2061
  427SOL    HW111789   8.387   8.034   2.227 -0.8353 -1.6480  2.1786
  427SOL    HW211790   8.505   8.118   2.303  0.3661 -1.9205  0.6338
  428SOL     OW11791   7.563   7.467   2.289 -0.4169 -0.3711 -0.0930
  428SOL    HW111792   7.607   7.432   2.372 -1.2165 -0.8586  0.1264
  428SOL    HW211793   7.468   7.438   2.287 -0.0884 -1.3640 -1.7934
  429SOL     OW11794   0.193   0.376   2.245  0.0125  0.1855  0.0690
  429SOL    HW111795   0.205   0.452   2.309  0.2374  0.5895 -0.4462
  429SOL    HW211796   0.102   0.380   2.205  0.3019  0.6701 -0.5671
  430SOL     OW11797   5.339   3.555   1.911  0.4736 -0.0367  0.0535
  430SOL    HW111798   5.279   3.542   1.990  0.4421  2.1283  0.4156
  430SOL    HW211799   5.300   3.506   1.832 -1.0846  0.2652  0.6094
  432SOL     OW11800   7.629   4.501   0.713 -0.0290  0.5426  0.0222
  432SOL    HW111801   7.535   4.516   0.744  0.4543 -0.2382  1.9249
  432SOL    HW211802   7.683   4.583   0.731  0.0736  0.3636  0.5114
  433SOL     OW11803   1.004   6.500   4.150  0.5989 -0.2834 -0.0739
  433SOL    HW111804   0.955   6.452   4.224 -0.0150 -0.4321 -0.5747
  433SOL    HW211805   1.075   6.557   4.190  1.6133 -1.9157  0.5231
  434SOL     OW11806   8.093   3.246   1.361 -0.9937  0.7845 -0.1406
  434SOL    HW111807   8.078   3.255   1.460  1.2083 -1.3224  0.4426
  434SOL    HW211808   8.141   3.327   1.327  0.6286  0.3725  1.0725
  435SOL     OW11809   8.472   4.180   1.589 -0.1852  0.0556  0.0018
  435SOL    HW111810   8.382   4.169   1.631 -0.7339  0.5644 -1.0491
  435SOL    HW211811   8.467   4.245   1.514  1.0277 -0.0430 -0.1802
  436SOL     OW11812   3.304   8.652   2.984 -0.0507  0.5353  0.0793
  436SOL    HW111813   3.222   8.595   2.990 -0.4570  0.8798 -1.9670
  436SOL    HW211814   3.314   8.686   2.891  1.8363  1.3776  0.5751
  437SOL     OW11815   9.394   3.358   4.086 -0.2101  0.3062 -0.6344
  437SOL    HW111816   9.319   3.414   4.049 -1.4907 -1.5427 -0.8643
  437SOL    HW211817   9.413   3.387   4.180 -1.2825  0.7091 -0.5335
  438SOL     OW11818   5.014   1.478   2.210 -0.1298  0.3742 -0.2046
  438SOL    HW111819   5.035   1.555   2.270  0.4747  0.4095 -0.4543
  438SOL    HW211820   4.920   1.485   2.178  0.1618  1.4432 -0.8567
  440SOL     OW11821   4.132   0.361   0.387  0.0048 -0.0475 -0.1321
  440SOL    HW111822   4.077   0.294   0.437  0.8842 -0.6052  0.0908
  440SOL    HW211823   4.208   0.315   0.342  0.9886  0.8819  0.5517
  442SOL     OW11824   1.547   0.903   3.775  0.0065 -0.2815  0.6308
  442SOL    HW111825   1.645   0.906   3.758 -0.3593  1.0387 -1.3854
  442SOL    HW211826   1.523   0.967   3.848  0.6005 -0.4518  0.9767
  443SOL     OW11827   7.257   1.265   1.639  0.0810  0.2775  0.5246
  443SOL    HW111828   7.283   1.357   1.670 -0.3890  0.3467  0.7193
  443SOL    HW211829   7.315   1.238   1.562  1.6296 -0.1216  1.8022
  444SOL     OW11830   4.091   9.132   2.466 -0.0663  0.8658  0.2376
  444SOL    HW111831   4.146   9.196   2.413 -1.0406  0.8284 -0.8454
  444SOL    HW211832   4.142   9.049   2.484  0.1505  0.7556 -0.9233
  445SOL     OW11833   9.415   8.566   1.468 -0.4072 -0.0473 -0.0438
  445SOL    HW111834   9.511   8.575   1.496 -0.0471  1.5518 -1.6909
  445SOL    HW211835   9.355   8.598   1.541  0.2992 -1.0147  0.9779
  447SOL     OW11836   7.259   8.916   2.723 -0.1535 -0.2996  0.1545
  447SOL    HW111837   7.293   8.997   2.674  1.6126 -0.1246  1.6130
  447SOL    HW211838   7.208   8.858   2.660 -2.6244  2.6206 -0.6129
  448SOL     OW11839   2.032   0.948   1.858 -0.0568  0.7011  0.5676
  448SOL    HW111840   1.939   0.960   1.891 -0.1659 -0.6151  0.7677
  448SOL    HW211841   2.033   0.949   1.758 -0.4359 -0.2347  0.5463
  450SOL     OW11842   1.119   5.192   2.229 -0.1461  0.4664 -0.0358
  450SOL    HW111843   1.171   5.260   2.178  0.5568 -1.0743 -1.4296
  450SOL    HW211844   1.182   5.137   2.284 -0.4244 -0.6781 -0.8560
  451SOL     OW11845   7.785   4.184   0.099  0.5021 -0.2881  0.4704
  451SOL    HW111846   7.805   4.186   0.197  0.5155 -0.3162  0.4683
  451SOL    HW211847   7.700   4.232   0.081 -0.3423 -1.6892  0.6856
  452SOL     OW11848   9.675   5.350   0.436  0.3130 -0.4780 -0.1151
  452SOL    HW111849   9.761   5.300   0.447  0.5128 -0.4190 -1.3992
  452SOL    HW211850   9.672   5.393   0.346 -0.4933  0.6286  0.4251
  453SOL     OW11851   7.274   6.435   3.449 -0.4081 -0.0123 -0.5946
  453SOL    HW111852   7.186   6.480   3.466 -0.3437 -0.4407  0.9231
  453SOL    HW211853   7.264   6.369   3.374 -1.1122  0.6818 -1.1243
  454SOL     OW11854   6.729   0.450   0.085  0.2545  0.4609 -0.1073
  454SOL    HW111855   6.669   0.481   0.011 -0.6305 -1.2098 -0.1090
  454SOL    HW211856   6.682   0.459   0.172  0.5269  0.4799  0.0378
  455SOL     OW11857   9.338   0.844   1.637 -0.0853 -0.0142  0.0076
  455SOL    HW111858   9.335   0.879   1.731  0.7403  0.8624 -0.2911
  455SOL    HW211859   9.374   0.751   1.638 -1.1052 -0.4157  0.6680
  456SOL     OW11860   9.230   1.247   1.820  0.0093  0.4379  0.2462
  456SOL    HW111861   9.202   1.159   1.782 -3.6375  0.3043  2.8718
  456SOL    HW211862   9.232   1.316   1.748 -0.5587 -1.0628 -1.2383
  457SOL     OW11863   1.638   1.447   1.764  0.8853 -0.2087 -0.3853
  457SOL    HW111864   1.609   1.413   1.674 -0.9015 -0.1917  0.1541
  457SOL    HW211865   1.710   1.388   1.800  0.3150 -1.3239 -1.0330
  458SOL     OW11866   1.628   5.972   0.737  0.6836  0.0018  0.5715
  458SOL    HW111867   1.670   6.016   0.817  0.5271  1.8054 -0.3123
  458SOL    HW211868   1.531   5.993   0.735  0.8722  0.8365 -0.6363
  459SOL     OW11869   2.529   1.180   1.243  0.0874 -0.1690  0.4011
  459SOL    HW111870   2.579   1.129   1.312  0.6838  0.7248  0.6417
  459SOL    HW211871   2.482   1.258   1.287  0.6841  0.5558 -0.2322
  460SOL     OW11872   0.233   7.454   1.024  0.2216  0.1984 -0.0062
  460SOL    HW111873   0.150   7.422   0.978 -0.2349  2.2039 -0.6266
  460SOL    HW211874   0.304   7.474   0.957  0.0033  1.8651  0.2299
  461SOL     OW11875   3.777   0.088   1.771  0.0745 -0.3378  0.2939
  461SOL    HW111876   3.837   0.165   1.746  0.0649 -0.4182  0.0195
  461SOL    HW211877   3.771   0.082   1.871 -0.9519  0.8172  0.3158
  463SOL     OW11878   7.271   0.433   0.672 -0.1262 -0.0077  0.2643
  463SOL    HW111879   7.298   0.513   0.618 -0.6175  0.6311  0.9638
  463SOL    HW211880   7.251   0.461   0.766  1.1223 -1.1770  0.8957
  464SOL     OW11881   2.857   0.053   0.886  0.0634 -0.2156 -0.0256
  464SOL    HW111882   2.898  -0.033   0.917  0.4127  0.1313  0.5051
  464SOL    HW211883   2.880   0.125   0.952 -0.8365  0.1265 -0.0871
  465SOL     OW11884   2.866   8.900   2.295 -0.0543  0.0747 -0.1458
  465SOL    HW111885   2.826   8.967   2.358 -0.2333  0.7878 -1.0116
  465SOL    HW211886   2.962   8.886   2.319  0.0545  0.8318 -0.1201
  466SOL     OW11887   8.690   1.649   2.580  0.0352 -0.2469 -0.4133
  466SOL    HW111888   8.686   1.564   2.633 -2.0093  0.8129  1.2170
  466SOL    HW211889   8.598   1.671   2.546  0.7756  0.7003 -1.8557
  468SOL     OW11890   0.088   3.253   3.707 -0.3042 -0.8333 -0.1578
  468SOL    HW111891   0.167   3.276   3.650  0.7857  2.1748  2.3919
  468SOL    HW211892   0.116   3.188   3.777 -0.4006 -0.7500 -0.0424
  469SOL     OW11893   4.308   9.770   4.326  0.0451 -0.1127  0.7034
  469SOL    HW111894   4.259   9.778   4.413  0.4514 -0.6682  0.9899
  469SOL    HW211895   4.264   9.827   4.257 -0.4304  0.1369  1.2089
  470SOL     OW11896   3.882   3.550   0.868  0.2332 -0.4935 -0.4631
  470SOL    HW111897   3.885   3.530   0.966  2.5492  1.8897  0.0051
  470SOL    HW211898   3.972   3.533   0.827 -0.1525  0.4694 -1.7529
  471SOL     OW11899   2.437   8.525   2.258  0.6261 -0.1531 -0.1349
  471SOL    HW111900   2.528   8.495   2.228  2.0703  1.0607  2.8548
  471SOL    HW211901   2.369   8.458   2.227  2.5053 -1.1037 -2.3970
  472SOL     OW11902   8.532   9.992   2.271 -0.2791  0.0547  0.1600
  472SOL    HW111903   8.540   9.892   2.267 -0.6937  0.0771 -1.3215
  472SOL    HW211904   8.606  10.033   2.219 -0.7675  0.5017 -0.1831
  473SOL     OW11905   8.864   0.417   0.379  0.3795  0.2159 -0.1976
  473SOL    HW111906   8.823   0.339   0.333  2.0526 -1.5188  1.1220
  473SOL    HW211907   8.862   0.497   0.320  0.0894 -1.2604 -2.2179
  474SOL     OW11908   1.737   7.885   3.263 -0.0939 -0.2182  0.5339
  474SOL    HW111909   1.757   7.878   3.360 -1.6397 -1.2233  0.7900
  474SOL    HW211910   1.647   7.846   3.244  0.1368  0.0752 -1.2817
  475SOL     OW11911   6.294   8.495   1.756  0.6775 -0.4039 -0.4978
  475SOL    HW111912   6.351   8.487   1.838  0.5495 -2.6235 -0.6023
  475SOL    HW211913   6.219   8.428   1.760  0.1591  0.0660 -2.0111
  477SOL     OW11914   4.211   3.230   4.423  0.3759 -0.3687  0.4287
  477SOL    HW111915   4.143   3.195   4.358  0.0997 -1.5778  1.3493
  477SOL    HW211916   4.302   3.202   4.394  0.3274 -0.2155  0.1262
  478SOL     OW11917   1.870   6.089   4.428 -0.4206 -0.0842 -0.3962
  478SOL    HW111918   1.786   6.127   4.390  0.2738  2.2519  0.3626
  478SOL    HW211919   1.948   6.118   4.372  0.1150 -0.4478  0.1572
  479SOL     OW11920   3.748   2.938   2.910 -0.0432 -0.2737 -0.1016
  479SOL    HW111921   3.846   2.918   2.913 -0.1334 -0.5405  1.5668
  479SOL    HW211922   3.709   2.897   2.828  0.8497 -2.0649  0.3384
  480SOL     OW11923   8.427   3.109   2.257 -0.1474  0.1567 -0.1221
  480SOL    HW111924   8.460   3.182   2.197  0.3980 -0.5818 -0.7390
  480SOL    HW211925   8.381   3.039   2.202 -0.8171  0.1144  0.4830
  481SOL     OW11926   9.126   5.375   2.061 -0.7154  0.2609 -0.2425
  481SOL    HW111927   9.174   5.410   1.980 -0.2458  1.7546  0.6544
  481SOL    HW211928   9.182   5.392   2.143 -0.7594 -2.0919  0.2962
  482SOL     OW11929   4.222   2.647   0.532  0.4637  0.0076 -0.0842
  482SOL    HW111930   4.215   2.554   0.497  0.7161  0.3909 -1.1727
  482SOL    HW211931   4.266   2.645   0.622 -0.2073 -0.9878  0.2222
  484SOL     OW11932   8.064   1.970   4.320 -0.5972  0.1318  0.0624
  484SOL    HW111933   8.012   1.885   4.326  1.5968 -1.4631 -2.1077
  484SOL    HW211934   8.092   1.999   4.412 -0.9039 -1.8081  0.7916
  486SOL     OW11935   3.223   5.206   1.938 -0.2075 -0.0278  0.0859
  486SOL    HW111936   3.270   5.242   1.858 -2.0159  0.7293 -0.6745
  486SOL    HW211937   3.130   5.244   1.942 -1.0451 -2.0859  1.0667
  487SOL     OW11938   9.662   5.755   4.054  0.1172  0.1180 -0.0692
  487SOL    HW111939   9.664   5.708   4.142  0.2143 -0.4154 -0.3525
  487SOL    HW211940   9.718   5.838   4.059  0.1663  0.0585  0.3519
  488SOL     OW11941   9.624   1.127   0.034 -0.2730 -0.5168  0.2051
  488SOL    HW111942   9.667   1.168   0.115  1.1497 -0.7181 -0.4385
  488SOL    HW211943   9.596   1.199  -0.029  1.0162 -0.4633 -0.3166
  489SOL     OW11944   2.999   7.636   4.088 -0.3679 -0.4311 -0.4894
  489SOL    HW111945   2.953   7.696   4.153 -0.5885  0.4538 -1.4448
  489SOL    HW211946   3.025   7.551   4.133  0.8139  0.7589  1.1583
  490SOL     OW11947   0.328   5.258   3.797  0.0770  0.0860 -0.2133
  490SOL    HW111948   0.405   5.223   3.744  0.4448  2.0282 -0.9832
  490SOL    HW211949   0.289   5.183   3.852  2.0121 -1.0764 -0.3778
  491SOL     OW11950   0.016   1.663   3.086 -0.0732 -0.0904  0.1489
  491SOL    HW111951   0.008   1.606   3.167 -0.9028  0.6981  0.6405
  491SOL    HW211952  -0.010   1.611   3.005  1.8951 -1.2289  0.2275
  492SOL     OW11953   5.207   0.007   2.667  0.0316 -0.0668  0.4429
  492SOL    HW111954   5.286   0.066   2.650  0.2921 -0.3879  0.5292
  492SOL    HW211955   5.237  -0.088   2.669  0.1319 -0.0168  3.4457
  493SOL     OW11956   9.400   5.028   2.833 -0.3411  0.4188 -0.0952
  493SOL    HW111957   9.368   4.936   2.809 -1.1281  0.1457  1.9149
  493SOL    HW211958   9.379   5.047   2.928 -1.6916  3.3366 -0.9162
  494SOL     OW11959   5.341   8.787   2.191 -0.3892 -0.5400  0.3818
  494SOL    HW111960   5.397   8.870   2.189 -1.3046  0.0826  0.1802
  494SOL    HW211961   5.245   8.811   2.173 -0.3403 -1.9328 -1.9628
  495SOL     OW11962   0.553   8.776   0.553  0.4396 -0.2726  0.2682
  495SOL    HW111963   0.596   8.866   0.553 -0.7748  0.4197 -4.0438
  495SOL    HW211964   0.618   8.708   0.522  0.0449 -0.1146 -0.9252
  496SOL     OW11965   2.666   1.661   0.422 -0.0266  0.4870 -0.2522
  496SOL    HW111966   2.657   1.760   0.438  0.9318  0.9529 -2.3886
  496SOL    HW211967   2.758   1.641   0.389  0.1937 -1.3223  1.4008
  497SOL     OW11968   9.648   5.145   2.770 -0.4670 -0.7520 -0.4455
  497SOL    HW111969   9.693   5.118   2.855  1.3363  0.3368 -1.0377
  497SOL    HW211970   9.559   5.099   2.764  0.4875 -2.8346  0.7944
  498SOL     OW11971   2.611   8.468   3.244 -0.1895 -0.9846  0.6839
  498SOL    HW111972   2.678   8.483   3.171 -0.9718  1.0527  0.3412
  498SOL    HW211973   2.520   8.456   3.204 -0.2867 -2.0681  1.2227
  500SOL     OW11974   1.158   5.334   1.536  0.3849  0.2237 -0.2205
  500SOL    HW111975   1.219   5.376   1.603  1.6269  0.0707 -1.2566
  500SOL    HW211976   1.171   5.377   1.447  0.1225 -0.9045 -0.8077
  501SOL     OW11977   1.048   2.064   4.032 -0.1445  0.5350  0.2932
  501SOL    HW111978   0.995   2.133   4.081 -0.4699 -0.1190  0.8815
  501SOL    HW211979   1.095   2.005   4.098  0.7995  0.7099 -0.2198
  502SOL     OW11980   7.101   1.729   3.862 -0.2875 -0.5750 -0.1890
  502SOL    HW111981   7.077   1.826   3.868 -0.3527 -0.4330 -2.3558
  502SOL    HW211982   7.196   1.721   3.831 -0.4594 -1.2005 -0.5611
  503SOL     OW11983   3.839   4.411   1.642  0.1772  0.4405 -0.4323
  503SOL    HW111984   3.798   4.439   1.729 -0.9837 -1.0672 -0.4599
  503SOL    HW211985   3.938   4.425   1.646 -0.0965  2.2614  0.3877
  504SOL     OW11986   7.796   9.418   2.559  0.8737  0.2582  0.1009
  504SOL    HW111987   7.724   9.437   2.626 -0.1048  2.1213 -1.4507
  504SOL    HW211988   7.882   9.460   2.590  0.7075  0.1526  0.7210
  505SOL     OW11989   6.997   9.584   2.479 -0.3158  0.3758  0.2266
  505SOL    HW111990   6.928   9.655   2.464 -0.7021  0.2338  1.3330
  505SOL    HW211991   6.953   9.495   2.485 -0.0813  0.3150  1.1952
  506SOL     OW11992   9.191   5.844   0.312 -0.0868 -0.2711  0.3496
  506SOL    HW111993   9.219   5.753   0.283 -0.3983 -0.3611  0.3318
  506SOL    HW211994   9.264   5.909   0.291 -0.5005 -0.2541 -1.0818
  507SOL     OW11995   3.229   6.106   0.597  0.9534 -0.3420  0.3456
  507SOL    HW111996   3.310   6.072   0.645  1.4342  0.0089 -0.2347
  507SOL    HW211997   3.148   6.058   0.633  1.4529 -0.9782  0.6418
  508SOL     OW11998   3.674   0.837   1.389  0.2733 -0.1807 -0.1846
  508SOL    HW111999   3.640   0.787   1.309 -0.6304 -0.8196  0.5860
  508SOL    HW212000   3.597   0.867   1.445  0.9508 -1.5368  1.5305
  509SOL     OW12001   4.353   3.645   1.999 -0.0783 -0.4276 -0.4376
  509SOL    HW112002   4.438   3.608   2.035 -1.1982 -0.9482  1.7692
  509SOL    HW212003   4.279   3.579   2.012 -1.1892  0.7529 -0.6414
  511SOL     OW12004   0.809   5.656   2.290  0.0799 -0.4214  0.0682
  511SOL    HW112005   0.766   5.676   2.378  0.4373 -0.9373  0.3670
  511SOL    HW212006   0.863   5.735   2.260 -1.3787  0.3653 -0.4982
  513SOL     OW12007   1.135   7.303   3.072 -0.6518 -0.2454 -0.1514
  513SOL    HW112008   1.130   7.277   3.168 -3.3528  1.0462  0.0991
  513SOL    HW212009   1.124   7.402   3.063 -0.9703 -0.4102 -1.7999
  515SOL     OW12010   5.010   6.780   1.745  0.6994  0.1766  0.0658
  515SOL    HW112011   5.101   6.802   1.781  0.0741  1.8275  0.6986
  515SOL    HW212012   4.951   6.749   1.819  0.4258  0.1614 -0.1562
  517SOL     OW12013   1.927   2.279   3.758 -0.6639  0.3314 -0.0843
  517SOL    HW112014   2.020   2.266   3.722 -1.1701  0.6593 -1.5299
  517SOL    HW212015   1.929   2.269   3.858  0.4616 -2.3107 -0.3255
  518SOL     OW12016   0.783   3.906   3.353  0.1926 -0.9953  0.2364
  518SOL    HW112017   0.701   3.958   3.328  0.4832 -0.5850  0.1323
  518SOL    HW212018   0.758   3.832   3.415 -0.6463 -2.3687 -1.6672
  519SOL     OW12019   0.312   7.166   3.213  0.7506 -0.3516 -0.1227
  519SOL    HW112020   0.327   7.124   3.303  0.7664 -0.3422 -0.1209
  519SOL    HW212021   0.312   7.266   3.223 -1.6114 -0.3581  0.2604
  520SOL     OW12022   6.864   9.921   4.000 -0.4065  0.3423 -0.8239
  520SOL    HW112023   6.800   9.874   3.940  1.1325 -1.8729 -0.7942
  520SOL    HW212024   6.958   9.902   3.971  0.3132  1.0852  0.9166
  521SOL     OW12025   8.006   1.029   3.033  0.0691 -0.1202 -0.1576
  521SOL    HW112026   8.049   0.950   3.076 -0.8551 -1.2169 -1.2328
  521SOL    HW212027   8.072   1.104   3.029  0.4930 -0.3145  2.2493
  522SOL     OW12028   3.257   1.469   3.543 -0.3217 -0.3657  0.4782
  522SOL    HW112029   3.336   1.412   3.568 -0.6238 -0.4006  1.3886
  522SOL    HW212030   3.283   1.565   3.546  0.7967 -0.4894 -3.1968
  523SOL     OW12031   6.058   9.995   2.400 -0.1606 -0.2934  0.0719
  523SOL    HW112032   6.078  10.090   2.375 -1.6792  0.1725  0.5873
  523SOL    HW212033   6.032   9.943   2.319  1.3070 -0.4528 -0.3190
  524SOL     OW12034   8.876   6.090   2.012  0.6328  0.0637 -0.0766
  524SOL    HW112035   8.953   6.040   2.049  0.6368  0.4702  0.4675
  524SOL    HW212036   8.908   6.150   1.938  0.7840  0.0130 -0.0530
  525SOL     OW12037   8.794   2.814   1.148 -0.0761 -0.2186 -0.1040
  525SOL    HW112038   8.861   2.745   1.121 -1.2455 -0.9900 -1.0787
  525SOL    HW212039   8.732   2.775   1.216 -0.0131  0.2414  0.2137
  526SOL     OW12040   7.890   0.333   1.087 -0.2646  0.5492 -0.8996
  526SOL    HW112041   7.960   0.285   1.139  0.5269  0.6074 -1.8831
  526SOL    HW212042   7.886   0.429   1.116 -1.4162  0.0469  0.6309
  527SOL     OW12043   0.436   4.889   0.066  0.2103 -0.0055  0.1550
  527SOL    HW112044   0.524   4.934   0.081  0.7229 -1.2186  0.8723
  527SOL    HW212045   0.397   4.861   0.155 -0.3474 -0.4931 -0.2383
  528SOL     OW12046   1.715   8.607   1.661 -0.0682  0.8061 -0.2224
  528SOL    HW112047   1.737   8.540   1.732 -0.8297  0.3035 -0.4419
  528SOL    HW212048   1.796   8.659   1.636  0.5643 -0.1481 -0.1504
  531SOL     OW12049   5.377   3.872   0.224  0.3941 -0.0447 -0.2389
  531SOL    HW112050   5.373   3.971   0.232  1.1903  0.1509 -1.9902
  531SOL    HW212051   5.303   3.840   0.165  0.4444 -0.4440 -0.0889
  532SOL     OW12052   8.143   4.558   1.673 -0.0542  0.3518  0.6166
  532SOL    HW112053   8.172   4.465   1.693  0.1450  0.4635  0.8382
  532SOL    HW212054   8.075   4.587   1.740  0.6644  0.7510  1.1645
  535SOL     OW12055   9.693   4.749   1.702  0.0407  0.3076  0.3177
  535SOL    HW112056   9.761   4.791   1.761 -1.2694 -0.3287  2.3336
  535SOL    HW212057   9.622   4.815   1.679  0.7855  0.6831 -0.9416
  537SOL     OW12058   8.236   9.006   2.491  0.4182  0.4370 -0.2109
  537SOL    HW112059   8.269   9.101   2.489  0.3536  0.4388 -1.6835
  537SOL    HW212060   8.137   9.005   2.494  0.4492  0.4204  3.2208
  538SOL     OW12061   7.904   6.565   3.122 -0.4845  0.3819 -0.0123
  538SOL    HW112062   7.858   6.634   3.179  0.8833  1.8923 -0.7062
  538SOL    HW212063   7.876   6.577   3.027 -1.0259 -0.6944  0.0023
  539SOL     OW12064   4.797   8.575   3.287 -0.8014 -0.1073 -0.1308
  539SOL    HW112065   4.878   8.627   3.262  0.6860 -1.4980  1.6006
  539SOL    HW212066   4.766   8.602   3.378  0.1283 -2.2938  0.8944
  540SOL     OW12067   0.323   8.381   1.553 -0.4183  0.0339  0.0752
  540SOL    HW112068   0.394   8.435   1.598 -0.5228  0.1309  0.1235
  540SOL    HW212069   0.345   8.371   1.456  0.8400 -1.8484  0.5079
  541SOL     OW12070   8.579   2.715   4.254 -0.1526 -0.1898 -0.0298
  541SOL    HW112071   8.623   2.790   4.304  0.8404 -1.1749  0.5742
  541SOL    HW212072   8.494   2.689   4.301 -1.1764  1.3994 -0.9429
  542SOL     OW12073   9.068   4.850   2.392  0.5477 -0.1322  0.2789
  542SOL    HW112074   9.051   4.764   2.440 -0.3436 -1.0703 -1.6617
  542SOL    HW212075   9.014   4.923   2.433 -0.8196 -1.0885  0.1891
  543SOL     OW12076   5.583   0.278   1.252 -0.7958  0.1053  0.7941
  543SOL    HW112077   5.575   0.376   1.269 -1.0197  0.3476 -0.6163
  543SOL    HW212078   5.547   0.257   1.161  1.6766 -0.8866 -0.0128
  544SOL     OW12079   7.377   8.235   3.813  0.1269 -0.6823  0.3239
  544SOL    HW112080   7.298   8.229   3.752  0.9605 -1.3115 -0.7085
  544SOL    HW212081   7.380   8.155   3.873 -1.1842  0.3560  1.8222
  545SOL     OW12082   4.484   1.253   0.303 -0.2596 -0.1577 -0.0844
  545SOL    HW112083   4.450   1.162   0.277  0.8362 -1.0085  1.4101
  545SOL    HW212084   4.408   1.319   0.298 -1.4817 -1.4900  0.4990
  546SOL     OW12085   4.257   2.827   2.909  0.4257  0.0939 -0.2915
  546SOL    HW112086   4.260   2.901   2.975  0.3469  0.6018 -0.8567
  546SOL    HW212087   4.164   2.817   2.873  1.2553  2.3924 -3.2247
  547SOL     OW12088   3.775   3.342   3.587 -0.6024  0.0256  0.4646
  547SOL    HW112089   3.701   3.342   3.519  1.2234 -1.2191 -1.5846
  547SOL    HW212090   3.833   3.422   3.573 -0.4912  0.0216  0.8903
  548SOL     OW12091   3.474   0.363   0.222 -0.1859 -0.2768 -0.2577
  548SOL    HW112092   3.483   0.385   0.125  1.8359  1.5601  0.3053
  548SOL    HW212093   3.484   0.265   0.235 -1.0551 -0.6219 -1.9449
  549SOL     OW12094   2.354   6.457   3.463 -0.2624  1.0964  0.4178
  549SOL    HW112095   2.415   6.480   3.387  0.9762 -1.4972  0.5675
  549SOL    HW212096   2.408   6.423   3.540 -1.8340 -0.6161  0.7960
  550SOL     OW12097   6.562   8.225   3.539  0.3024  0.4347  0.1374
  550SOL    HW112098   6.583   8.128   3.554 -1.5493 -0.2066 -1.2784
  550SOL    HW212099   6.636   8.280   3.577  1.9459 -1.5687 -0.0074
  551SOL     OW12100   6.548   6.886   2.792 -0.0525 -0.1219 -0.1401
  551SOL    HW112101   6.615   6.922   2.727  0.2574 -1.5144 -0.6157
  551SOL    HW212102   6.456   6.900   2.756  0.1206 -0.9403 -0.9173
  552SOL     OW12103   4.534   0.141   2.243 -0.1753  0.5178 -0.1071
  552SOL    HW112104   4.551   0.217   2.180 -1.8845  0.1997 -0.9892
  552SOL    HW212105   4.534   0.055   2.192  1.6059 -0.0844  0.8628
  554SOL     OW12106   4.049   2.702   3.768  0.1656  0.0983 -0.8151
  554SOL    HW112107   4.021   2.643   3.693  2.0204  1.3806 -2.5741
  554SOL    HW212108   3.983   2.695   3.843 -1.8176 -1.0448 -2.6328
  555SOL     OW12109   3.712   6.639   1.997 -0.2086 -0.2921  0.0547
  555SOL    HW112110   3.620   6.675   2.010 -0.2102  0.2895 -1.4203
  555SOL    HW212111   3.714   6.582   1.914  0.7957 -0.1509 -0.0283
  556SOL     OW12112   9.653   9.501   2.936  0.2297 -0.6707  0.1761
  556SOL    HW112113   9.578   9.480   2.999  0.2950 -1.8841 -0.1403
  556SOL    HW212114   9.725   9.433   2.946  0.6578 -0.3277 -0.5441
  557SOL     OW12115   8.796   9.243   1.004 -0.6847  0.0925 -0.1365
  557SOL    HW112116   8.891   9.272   1.009  0.4445 -3.7506  3.0340
  557SOL    HW212117   8.770   9.230   0.908  2.5098 -0.4231 -0.9887
  559SOL     OW12118   3.862   1.516   1.301 -0.0951  0.3353 -0.1824
  559SOL    HW112119   3.820   1.448   1.241 -1.2829  0.5687  0.3664
  559SOL    HW212120   3.841   1.608   1.267 -0.4801  0.4618  0.3896
  560SOL     OW12121   9.484   1.311   0.237  0.1197  0.3644  0.3955
  560SOL    HW112122   9.522   1.393   0.194  2.6094  0.1149  1.9707
  560SOL    HW212123   9.553   1.271   0.298 -2.3985 -0.7166  2.6227
  561SOL     OW12124   5.458   9.430   2.754 -0.1015  0.4290  0.0258
  561SOL    HW112125   5.491   9.356   2.695  0.3500  0.7885 -0.1771
  561SOL    HW212126   5.366   9.458   2.724 -0.6473 -0.6527  0.6662
  562SOL     OW12127   8.821   0.683   2.517 -0.4654  0.2793  0.3561
  562SOL    HW112128   8.888   0.620   2.556 -0.0968  0.9906  0.8877
  562SOL    HW212129   8.866   0.768   2.491 -0.8375  0.0803 -0.9741
  563SOL     OW12130   5.607   1.091   2.293  0.2249 -0.6244 -0.4260
  563SOL    HW112131   5.636   1.060   2.202 -0.0718 -0.7561 -0.4762
  563SOL    HW212132   5.508   1.083   2.301  0.0455  1.0820 -0.7222
  564SOL     OW12133   7.450   2.340   1.795  0.3598 -0.1236  0.3326
  564SOL    HW112134   7.395   2.333   1.712 -0.3537  0.0522  0.7790
  564SOL    HW212135   7.433   2.429   1.839  0.0825 -0.5494  1.1050
  565SOL     OW12136   1.489   5.378   3.912 -0.2127  0.1796  0.1078
  565SOL    HW112137   1.441   5.466   3.912  0.3395  0.4818  0.9740
  565SOL    HW212138   1.567   5.384   3.850 -0.2681  0.2480  0.0434
  566SOL     OW12139   3.952   2.523   3.578  0.4941 -0.3851 -0.2257
  566SOL    HW112140   3.993   2.444   3.532  1.6601  0.2669 -0.3003
  566SOL    HW212141   3.863   2.543   3.536  0.5668 -1.1361 -0.7563
  567SOL     OW12142   7.907   4.819   4.074 -0.2966 -0.1004  0.3920
  567SOL    HW112143   7.846   4.751   4.115 -3.0694  1.3552 -1.2246
  567SOL    HW212144   7.985   4.772   4.032 -1.1795 -2.1209  0.9432
  568SOL     OW12145   1.653   1.572   3.751 -0.0164 -0.2157 -0.2402
  568SOL    HW112146   1.641   1.490   3.696  2.6985  0.0044 -1.2315
  568SOL    HW212147   1.689   1.547   3.841  1.0819 -0.1306 -0.6410
  569SOL     OW12148   3.027   7.435   4.307  0.1482  0.4430  0.7988
  569SOL    HW112149   3.115   7.400   4.340  0.2580 -1.1184 -1.0479
  569SOL    HW212150   2.953   7.393   4.359  0.3657 -1.0815 -0.0925
  571SOL     OW12151   8.712   8.403   2.016 -0.4827 -0.3705 -0.4253
  571SOL    HW112152   8.770   8.415   1.936  2.3952 -1.1689  1.4325
  571SOL    HW212153   8.704   8.306   2.038 -2.2705 -0.2489 -0.4464
  573SOL     OW12154   0.943   0.419   1.190  0.4429 -0.1961  0.2425
  573SOL    HW112155   0.865   0.361   1.165 -0.1982  1.4409 -1.7203
  573SOL    HW212156   0.973   0.397   1.282 -2.3167 -0.9141  1.0083
  574SOL     OW12157   5.575   9.390   3.926 -0.1151  0.1796  0.2638
  574SOL    HW112158   5.612   9.449   3.855  0.9284 -0.1897  0.4807
  574SOL    HW212159   5.519   9.318   3.885 -1.6803  1.5086  0.0278
  575SOL     OW12160   1.961   3.687   0.164 -0.6087  0.4844  0.4588
  575SOL    HW112161   1.987   3.777   0.200  0.4722 -0.4486  2.0867
  575SOL    HW212162   1.862   3.674   0.176 -0.8481  1.6358 -0.2130
  576SOL     OW12163   1.344   6.599   2.598 -0.2109  0.0565 -0.1704
  576SOL    HW112164   1.296   6.685   2.619 -0.7903 -0.1428 -0.6500
  576SOL    HW212165   1.288   6.545   2.534  0.7599 -0.0833 -0.9075
  577SOL     OW12166   1.751   9.401   0.174  0.1718  0.2607 -0.9254
  577SOL    HW112167   1.751   9.472   0.104  1.7195 -0.4278 -1.6505
  577SOL    HW212168   1.806   9.432   0.252 -0.1112  0.3317 -0.7554
  578SOL     OW12169   8.766   7.530   1.976  0.1550  0.1586 -0.3044
  578SOL    HW112170   8.821   7.507   1.896  2.2905  0.8094  0.9251
  578SOL    HW212171   8.753   7.629   1.981 -1.4670 -0.0167 -0.7795
  579SOL     OW12172   2.055   7.590   0.894  0.2208  0.2366  0.2205
  579SOL    HW112173   2.089   7.581   0.801  1.2366 -0.7624  0.6771
  579SOL    HW212174   1.955   7.582   0.894  0.3617 -2.1595 -0.5321
  580SOL     OW12175   1.646   3.483   3.174 -0.2153  0.2618 -0.2845
  580SOL    HW112176   1.707   3.559   3.193 -1.8907  1.5806 -0.1024
  580SOL    HW212177   1.692   3.417   3.114  0.9821  1.7919 -1.0726
  581SOL     OW12178   2.259   8.696   0.445  0.3861 -0.0133  0.2171
  581SOL    HW112179   2.244   8.793   0.425 -0.9392 -0.3012 -0.2697
  581SOL    HW212180   2.343   8.685   0.497  0.4102  1.4249  0.5010
  582SOL     OW12181   1.450   0.818   0.741  0.2185 -0.3844  1.5204
  582SOL    HW112182   1.511   0.741   0.722 -0.2190 -0.8572  2.0312
  582SOL    HW212183   1.355   0.789   0.731  0.0059 -0.3742  3.4177
  583SOL     OW12184   8.526   2.298   2.818 -0.0507  0.0906  0.1143
  583SOL    HW112185   8.553   2.266   2.909 -2.2825 -0.6193  0.5732
  583SOL    HW212186   8.604   2.293   2.756  1.0285 -1.1937  1.5355
  584SOL     OW12187   1.849   8.632   0.894 -0.3528 -0.8136  0.2876
  584SOL    HW112188   1.858   8.731   0.878 -1.1562 -1.1026 -2.1881
  584SOL    HW212189   1.832   8.616   0.991  1.1793  1.3811  0.9628
  585SOL     OW12190   8.640   8.408   2.704  0.4715 -0.1885 -0.5423
  585SOL    HW112191   8.719   8.441   2.651  0.2753 -0.1586 -0.8155
  585SOL    HW212192   8.636   8.458   2.791  1.9749 -1.6424  0.3900
  587SOL     OW12193   1.145   2.813   1.245 -0.1588  0.1007 -0.0018
  587SOL    HW112194   1.107   2.762   1.322  0.9940 -0.5080  0.1677
  587SOL    HW212195   1.237   2.846   1.268  0.3962 -0.5012 -1.2939
  588SOL     OW12196   3.002   6.273   2.190 -0.5505 -0.0154 -0.0649
  588SOL    HW112197   3.027   6.367   2.165 -0.1617  0.1197  0.7996
  588SOL    HW212198   2.985   6.269   2.289 -0.5909 -0.8556 -0.1069
  589SOL     OW12199   1.961   6.355   2.975  0.3163  0.4810  0.6381
  589SOL    HW112200   1.925   6.262   2.973 -2.2047  1.4347 -2.5051
  589SOL    HW212201   2.026   6.368   2.900  0.1886  1.3978  0.6723
  590SOL     OW12202   9.901   2.366   2.322 -0.1524 -0.4218 -0.3761
  590SOL    HW112203   9.830   2.333   2.260 -0.4860  1.0771 -0.7999
  590SOL    HW212204   9.989   2.325   2.297 -0.8468 -2.2862  0.1540
  591SOL     OW12205   3.641   5.517   1.082 -0.2015  0.3459 -0.1268
  591SOL    HW112206   3.556   5.465   1.084 -0.6898  1.1742  3.0129
  591SOL    HW212207   3.710   5.470   1.136  0.0216  1.7718  0.8696
  592SOL     OW12208   2.668   3.662   0.765 -0.0261 -0.4527  0.7196
  592SOL    HW112209   2.708   3.613   0.843  0.2161 -1.0375  0.2341
  592SOL    HW212210   2.738   3.718   0.721  0.2810 -1.4998 -0.1485
  593SOL     OW12211   0.497   4.951   2.310 -0.1839  0.3331  0.1567
  593SOL    HW112212   0.522   5.004   2.392  0.1874 -0.5456  0.6139
  593SOL    HW212213   0.501   4.854   2.331 -1.4862  0.1309 -0.5172
  594SOL     OW12214   9.229   4.220   2.473 -0.1808  0.4225 -0.0878
  594SOL    HW112215   9.320   4.212   2.432  0.8901  1.8486  1.9432
  594SOL    HW212216   9.211   4.139   2.529 -0.7237 -0.4639 -1.4999
  595SOL     OW12217   2.247   6.168   3.383 -0.4426  0.4023 -0.0565
  595SOL    HW112218   2.270   6.141   3.289 -2.2891 -1.8053  0.0683
  595SOL    HW212219   2.305   6.244   3.411  1.4799 -0.1740 -2.2903
  596SOL     OW12220   3.489   2.627   0.211  0.3982 -0.2010  0.1433
  596SOL    HW112221   3.433   2.610   0.292 -0.3588  2.0091  0.1315
  596SOL    HW212222   3.585   2.609   0.232  0.1239 -0.2975  1.3329
  597SOL     OW12223   1.651   2.126   4.094 -0.0321  0.2646  0.8198
  597SOL    HW112224   1.727   2.165   4.041 -0.2574  0.2477  0.4852
  597SOL    HW212225   1.573   2.109   4.034  0.2160 -1.1244  0.8784
  598SOL     OW12226   4.322   6.521   3.465  0.6304  0.0343 -0.9564
  598SOL    HW112227   4.374   6.606   3.469 -0.0156  0.4599 -1.3921
  598SOL    HW212228   4.373   6.448   3.510  0.6139  0.9591  0.6171
  599SOL     OW12229   1.434   6.269   1.273 -0.0307  0.3336  0.1185
  599SOL    HW112230   1.520   6.246   1.318 -0.2372 -0.8642 -0.0778
  599SOL    HW212231   1.378   6.327   1.333 -0.1434 -0.9386  1.2557
  600SOL     OW12232   2.161   6.552   3.302  1.0212  0.3240  0.0726
  600SOL    HW112233   2.206   6.641   3.292  2.1720 -0.2678 -0.0035
  600SOL    HW212234   2.207   6.499   3.373  1.3273 -0.8296 -0.9797
  602SOL     OW12235   3.452   3.504   2.580  0.1212 -0.5880 -0.3997
  602SOL    HW112236   3.446   3.465   2.488  2.0333 -1.8694 -0.0255
  602SOL    HW212237   3.377   3.470   2.636  0.0098 -1.2853 -0.9618
  604SOL     OW12238   9.837   5.927   2.117  0.3718 -0.0439 -0.2773
  604SOL    HW112239   9.902   5.972   2.177 -0.7592 -1.1583  1.8381
  604SOL    HW212240   9.876   5.841   2.083  0.7777  0.2898 -0.6544
  605SOL     OW12241   4.942   5.062   0.639  0.3067 -0.0658  0.0796
  605SOL    HW112242   4.997   5.145   0.632  0.3315 -0.1195 -0.3793
  605SOL    HW212243   4.864   5.078   0.700 -1.7465  1.4239 -2.8394
  606SOL     OW12244  10.001   3.402   1.506 -0.0871  0.5806 -0.0187
  606SOL    HW112245  10.034   3.314   1.472  0.8623  0.5691  0.9348
  606SOL    HW212246   9.926   3.387   1.570  0.4255  0.4324  0.5527
  607SOL     OW12247   0.703   8.568   3.856 -0.3214  0.3237  0.1160
  607SOL    HW112248   0.707   8.655   3.905 -0.4219  0.5163 -0.2196
  607SOL    HW212249   0.790   8.551   3.810 -0.8769  1.0480 -1.2009
  608SOL     OW12250   0.902   1.389   0.538 -0.0716  0.3633  0.4306
  608SOL    HW112251   0.960   1.334   0.478 -1.1749 -0.3337 -0.0133
  608SOL    HW212252   0.821   1.419   0.489  0.4197  2.2478  0.7341
  609SOL     OW12253   0.716   7.576   0.303  0.3744 -0.2650  0.7833
  609SOL    HW112254   0.710   7.659   0.358 -2.3639 -0.1626  0.4169
  609SOL    HW212255   0.790   7.586   0.236 -1.5965  3.0487 -1.0503
  611SOL     OW12256   0.344   4.978   4.279 -0.8087 -0.5229 -0.0440
  611SOL    HW112257   0.371   5.060   4.229  1.3560 -1.2107 -0.0555
  611SOL    HW212258   0.319   4.906   4.214 -0.2474 -0.6803 -0.0842
  612SOL     OW12259   3.425   2.362   1.128  0.2761 -0.0191 -0.5113
  612SOL    HW112260   3.440   2.263   1.117  0.5521 -0.0954  0.5022
  612SOL    HW212261   3.360   2.393   1.058  0.3258 -0.8797 -0.9573
  614SOL     OW12262   8.136   8.910   3.838 -0.0484  0.1294  0.2305
  614SOL    HW112263   8.074   8.832   3.826  1.6728 -0.8682 -2.6841
  614SOL    HW212264   8.230   8.877   3.847  0.8460  1.8336 -2.1920
  615SOL     OW12265   3.674   1.690   3.058 -0.0398  0.0275 -0.3540
  615SOL    HW112266   3.672   1.688   3.158  1.7828 -0.6218 -0.3173
  615SOL    HW212267   3.582   1.713   3.024 -0.7918 -0.1888  1.4389
  617SOL     OW12268   2.504   1.904   1.154  0.3174  0.4232  0.2779
  617SOL    HW112269   2.433   1.963   1.192 -1.2441 -0.0039 -1.8769
  617SOL    HW212270   2.501   1.815   1.198 -0.9091  0.2131 -0.1977
  619SOL     OW12271   2.384   4.366   0.765  0.2652 -0.1952 -0.2204
  619SOL    HW112272   2.461   4.333   0.709  0.8110 -1.0185  0.9823
  619SOL    HW212273   2.375   4.307   0.845 -0.9826  0.5284  0.1696
  621SOL     OW12274   1.861   0.605   3.084  0.2644 -0.4523 -0.6661
  621SOL    HW112275   1.876   0.631   2.988 -0.0140  1.5255 -0.1957
  621SOL    HW212276   1.928   0.651   3.142 -1.2647  0.5474  0.3576
  622SOL     OW12277   8.534   5.048   3.648  0.2009 -0.7046 -0.6252
  622SOL    HW112278   8.440   5.033   3.617 -0.1377  3.0385 -1.7339
  622SOL    HW212279   8.533   5.079   3.742  0.3365 -0.7363 -0.6139
  623SOL     OW12280   3.495   1.057   3.043  0.3692 -0.2690  0.5545
  623SOL    HW112281   3.417   1.045   3.105 -0.0082 -0.3863  0.0626
  623SOL    HW212282   3.549   1.136   3.073  0.6566 -0.8249  1.5109
  624SOL     OW12283   4.696   0.671   3.106  0.2758  0.2843 -0.5005
  624SOL    HW112284   4.691   0.710   3.198  0.7893  0.6038 -0.6084
  624SOL    HW212285   4.760   0.724   3.051  2.1256 -1.6034 -0.2106
  625SOL     OW12286   1.280   9.344   2.879 -0.0120  0.0205  0.0391
  625SOL    HW112287   1.372   9.323   2.913  0.4661  0.4368 -0.9791
  625SOL    HW212288   1.280   9.435   2.837 -1.1667  0.5033  1.0385
  626SOL     OW12289   9.362   6.267   0.949 -0.0541  0.3410  0.0470
  626SOL    HW112290   9.420   6.343   0.918 -0.5022  0.5326 -0.3280
  626SOL    HW212291   9.394   6.235   1.038  0.5147  0.5678 -0.0761
  627SOL     OW12292   1.690   5.947   2.100 -0.5612  0.2491  0.6922
  627SOL    HW112293   1.765   6.011   2.084 -0.3124 -0.2049  0.0282
  627SOL    HW212294   1.607   5.998   2.123  0.1678  0.7150  2.3259
  628SOL     OW12295   0.977   1.475   3.873 -0.6525  0.5018  0.8168
  628SOL    HW112296   1.061   1.520   3.904  1.3027 -0.4844 -2.7147
  628SOL    HW212297   0.933   1.533   3.804 -0.4335 -0.9519 -0.5854
  629SOL     OW12298   7.897   8.998   0.993 -0.4849 -0.0618 -0.0948
  629SOL    HW112299   7.879   8.969   1.087  0.3292 -2.5433 -0.6944
  629SOL    HW212300   7.812   9.031   0.952 -1.1536 -0.3646  1.0257
  630SOL     OW12301   0.876   0.921   3.574 -0.1529 -0.3226 -0.0169
  630SOL    HW112302   0.835   0.840   3.615  1.0901 -0.2729  1.3498
  630SOL    HW212303   0.811   0.962   3.510 -1.6176 -1.1498  0.9128
  631SOL     OW12304   5.264   8.349   4.293 -0.1396 -0.0950 -0.3299
  631SOL    HW112305   5.364   8.357   4.293 -0.2893  1.8962 -0.4829
  631SOL    HW212306   5.225   8.418   4.353 -1.4122 -1.3494  0.3094
  632SOL     OW12307   8.124   0.574   2.427 -0.1785 -0.0982  0.1083
  632SOL    HW112308   8.211   0.584   2.475  0.8703  1.5789 -2.0732
  632SOL    HW212309   8.107   0.655   2.372 -2.5832 -0.9111 -0.3926
  633SOL     OW12310   0.889   2.450   1.186  0.2179  0.1960 -0.0470
  633SOL    HW112311   0.903   2.468   1.284  0.6521 -3.1766  0.5684
  633SOL    HW212312   0.792   2.431   1.170 -0.4816  4.0671 -0.9222
  634SOL     OW12313   9.573   3.775   2.858  0.7015 -0.3196  0.0110
  634SOL    HW112314   9.615   3.698   2.906  2.3138  0.0211 -0.8313
  634SOL    HW212315   9.552   3.848   2.924  0.7210 -0.7876  0.5439
  635SOL     OW12316   1.961   1.498   1.670 -0.5690  0.2654 -0.0153
  635SOL    HW112317   1.952   1.412   1.719  0.1762 -0.1780 -0.6510
  635SOL    HW212318   1.915   1.491   1.582  0.8360 -0.0157 -0.7360
  636SOL     OW12319   9.566   9.337   3.328 -0.1889 -0.2874 -0.0320
  636SOL    HW112320   9.649   9.366   3.375 -0.9433  2.0173 -0.0446
  636SOL    HW212321   9.538   9.247   3.361  0.9785 -0.0234  1.7212
  637SOL     OW12322   3.677   0.807   3.102  0.3944  0.5836  0.3551
  637SOL    HW112323   3.607   0.854   3.049  0.2553  1.7507  1.5457
  637SOL    HW212324   3.666   0.829   3.199  1.3812 -0.5512  0.7428
  639SOL     OW12325   2.597   4.170   2.078  0.3392  0.0335 -0.1296
  639SOL    HW112326   2.575   4.129   2.167  1.5524 -0.6987 -0.1542
  639SOL    HW212327   2.677   4.228   2.088  0.1513  0.3794 -0.6386
  640SOL     OW12328   4.095   1.231   2.574 -0.0130  0.0210 -0.0769
  640SOL    HW112329   4.147   1.213   2.490  1.1412 -0.2834  0.6877
  640SOL    HW212330   4.003   1.193   2.565 -0.3240  1.1038 -1.6909
  641SOL     OW12331   7.693   7.090   4.061 -0.6317  0.7807 -0.2087
  641SOL    HW112332   7.710   7.134   4.149  0.6236 -0.6563  0.2877
  641SOL    HW212333   7.725   6.995   4.064 -3.0289 -0.1106 -1.3397
  642SOL     OW12334   4.579   4.064   1.042  0.1227  0.7364 -0.1424
  642SOL    HW112335   4.679   4.062   1.051  0.1039 -1.7742 -0.1750
  642SOL    HW212336   4.548   4.159   1.047  2.6573  1.7279 -1.9356
  643SOL     OW12337   0.643   6.853   2.098 -0.2127  0.4633  0.4220
  643SOL    HW112338   0.639   6.951   2.117  1.8455  0.3978  1.3477
  643SOL    HW212339   0.606   6.835   2.007  0.6227  2.2891 -0.3033
  645SOL     OW12340   1.955   9.145   3.277 -0.6310  0.3403 -0.2186
  645SOL    HW112341   2.014   9.199   3.217 -1.0827  1.3968  0.2612
  645SOL    HW212342   1.963   9.048   3.255 -0.4811  0.6874 -1.7087
  646SOL     OW12343   9.292   0.510   3.373 -0.0188 -0.8992  0.0758
  646SOL    HW112344   9.195   0.497   3.349 -0.6189  1.5957  0.9844
  646SOL    HW212345   9.305   0.603   3.409  2.8435 -0.9827 -0.6292
  647SOL     OW12346   2.858   7.460   0.971 -0.3200 -0.1014  0.3515
  647SOL    HW112347   2.831   7.556   0.981  1.1307  0.3102  0.4254
  647SOL    HW212348   2.923   7.436   1.043 -1.8683 -1.6077  1.2913
  650SOL     OW12349   6.323   8.001   1.835  0.1125 -0.7014  0.2779
  650SOL    HW112350   6.259   8.007   1.912  0.9152 -1.4294  1.0048
  650SOL    HW212351   6.274   8.023   1.750  0.0281  3.8117  1.3535
  651SOL     OW12352   8.173   7.510   3.827  0.2224 -0.3793 -0.5410
  651SOL    HW112353   8.180   7.556   3.739  1.0675 -1.1490 -0.8797
  651SOL    HW212354   8.111   7.432   3.818  0.0569 -0.2663 -0.3737
  652SOL     OW12355   8.400   7.299   1.678  0.1943 -0.0452 -0.5996
  652SOL    HW112356   8.302   7.305   1.660  0.0882  2.3306  0.5875
  652SOL    HW212357   8.423   7.356   1.757  2.0741 -2.9920  1.0792
  654SOL     OW12358   2.540   2.370   3.703 -0.6410 -0.4307 -0.1693
  654SOL    HW112359   2.450   2.408   3.678  0.3494  1.1122 -1.4703
  654SOL    HW212360   2.534   2.329   3.794 -2.7132 -0.4962 -0.3090
  655SOL     OW12361   8.502   0.434   2.429  0.0332  0.0436 -0.0960
  655SOL    HW112362   8.596   0.442   2.464  0.1217 -0.4406 -0.2256
  655SOL    HW212363   8.463   0.346   2.456 -0.1506 -0.0346 -0.6062
  657SOL     OW12364   5.726   1.370   1.962 -0.4478 -0.4426  0.0811
  657SOL    HW112365   5.821   1.395   1.979 -2.0109  4.2683  2.4617
  657SOL    HW212366   5.706   1.381   1.864  1.3133 -1.1654 -0.3834
  658SOL     OW12367   0.426   2.610   2.321 -0.0239  0.2180  0.4508
  658SOL    HW112368   0.393   2.629   2.414 -1.8089 -1.4851  0.2187
  658SOL    HW212369   0.358   2.554   2.273  2.0345 -1.1157 -0.9977
  659SOL     OW12370   1.358   8.152   1.812  0.0357  0.1402 -0.2822
  659SOL    HW112371   1.430   8.207   1.769 -0.0896  1.3896  1.0657
  659SOL    HW212372   1.298   8.212   1.866  0.9455 -1.5361  2.7030
  660SOL     OW12373   0.622   1.930   4.389  0.3156 -0.4042 -0.6312
  660SOL    HW112374   0.530   1.928   4.430  0.0026 -2.4782 -1.3480
  660SOL    HW212375   0.686   1.972   4.452 -1.0410  0.6540  0.0741
  661SOL     OW12376   0.856   5.231   3.860  0.0608  0.2190  0.0029
  661SOL    HW112377   0.842   5.172   3.781  1.0524 -1.1503  0.8259
  661SOL    HW212378   0.919   5.305   3.836 -0.6086  0.5295 -0.8198
  662SOL     OW12379   2.132   9.642   2.682 -0.5154  0.6530  0.0064
  662SOL    HW112380   2.111   9.597   2.595 -0.0446  2.7448 -1.2177
  662SOL    HW212381   2.166   9.734   2.665  2.0504  0.1969  2.2940
  664SOL     OW12382   0.298   6.125   1.485 -0.0402  0.3228  0.3893
  664SOL    HW112383   0.348   6.134   1.399 -1.0744  1.0694 -0.1459
  664SOL    HW212384   0.348   6.064   1.547  1.3108  0.7352 -0.2823
  665SOL     OW12385   5.497   7.964   2.016 -0.3301 -0.1589 -0.4962
  665SOL    HW112386   5.407   7.985   1.977  0.0426 -0.1460 -1.3646
  665SOL    HW212387   5.500   7.867   2.043 -1.4904  0.4520  1.9913
  666SOL     OW12388   9.264   3.223   1.455  0.9075 -0.5786  0.4131
  666SOL    HW112389   9.355   3.221   1.414  0.4919  1.1206 -0.6497
  666SOL    HW212390   9.260   3.297   1.522  0.2124 -0.4322  0.2130
  667SOL     OW12391   0.265   3.184   2.316 -0.7201  0.8520 -0.5818
  667SOL    HW112392   0.201   3.110   2.336  1.1648 -0.1825  1.9958
  667SOL    HW212393   0.350   3.146   2.279  0.7230  1.5156  1.8769
  668SOL     OW12394   9.972   6.222   3.618 -0.1895  0.2962  0.0846
  668SOL    HW112395   9.875   6.218   3.638  0.1298 -2.4276  1.1713
  668SOL    HW212396   9.999   6.144   3.562  1.8615 -0.5093  2.0847
  669SOL     OW12397   4.033   2.208   2.719 -0.6512  0.2616 -0.0232
  669SOL    HW112398   4.107   2.216   2.785 -0.2521  0.0487 -0.4467
  669SOL    HW212399   4.069   2.180   2.630 -1.2278  0.2107 -0.2481
  671SOL     OW12400   1.812   2.711   1.578  0.3060 -0.1654 -0.1921
  671SOL    HW112401   1.845   2.805   1.586 -2.0339  0.8048 -1.4800
  671SOL    HW212402   1.714   2.708   1.599  0.3567 -2.3406 -0.1321
  673SOL     OW12403   3.996   2.012   1.498 -0.6000  0.0436 -0.3965
  673SOL    HW112404   4.030   1.933   1.447 -0.2861  2.2894 -3.8041
  673SOL    HW212405   4.073   2.059   1.542 -0.3107  0.6040 -1.5036
  674SOL     OW12406   7.676   1.302   0.969  0.6110 -0.3887 -0.2674
  674SOL    HW112407   7.774   1.301   0.950  0.7604 -1.0026  0.5209
  674SOL    HW212408   7.626   1.270   0.888  1.1513 -1.6018 -0.1240
  676SOL     OW12409   9.886   8.512   2.814 -0.0512 -0.2114 -0.0189
  676SOL    HW112410   9.971   8.529   2.864  0.3116 -2.8442  0.3677
  676SOL    HW212411   9.893   8.548   2.721  0.9083  0.9396  0.4991
  677SOL     OW12412   0.364   8.142   1.728  0.2768  0.5110  0.0852
  677SOL    HW112413   0.451   8.093   1.736 -0.0051  0.0670  0.4663
  677SOL    HW212414   0.375   8.221   1.668  0.8340  0.1993 -0.2240
  678SOL     OW12415   7.472   6.713   4.107 -0.2262 -0.4021 -0.0194
  678SOL    HW112416   7.388   6.760   4.137 -0.6527 -1.9126  1.1935
  678SOL    HW212417   7.550   6.752   4.156 -0.3966 -0.0296 -0.0360
  680SOL     OW12418   2.086   6.181   4.277  0.3480 -0.1487  0.3389
  680SOL    HW112419   2.116   6.141   4.189 -0.1184  0.0983  0.0677
  680SOL    HW212420   2.155   6.162   4.346  1.7857  1.5585 -0.5894
  682SOL     OW12421   6.494   3.988   0.211 -0.3995 -0.1555  0.0098
  682SOL    HW112422   6.415   4.028   0.258 -1.0416 -0.0427 -1.1481
  682SOL    HW212423   6.507   4.034   0.123  1.0227 -0.1050  0.2351
  683SOL     OW12424   0.617   9.669   3.290  0.3581 -0.0830 -0.2517
  683SOL    HW112425   0.568   9.643   3.373 -0.7485  0.5366 -0.6942
  683SOL    HW212426   0.611   9.595   3.223  0.7644 -0.3535  0.0079
  684SOL     OW12427   3.527   1.334   1.381 -0.2145  0.1537 -0.0722
  684SOL    HW112428   3.608   1.314   1.437 -0.3622  0.4923  0.2665
  684SOL    HW212429   3.471   1.251   1.373 -0.5535  0.2813  0.8856
  685SOL     OW12430   9.688   4.126   2.023 -0.5464 -0.2692  0.1149
  685SOL    HW112431   9.679   4.097   2.118  0.6685 -1.9620 -0.2728
  685SOL    HW212432   9.683   4.047   1.962 -0.1712  0.6617 -1.1690
  686SOL     OW12433   2.013   3.904   3.006  0.3459  0.6837  0.7652
  686SOL    HW112434   2.026   3.884   3.103 -0.9481  1.0642  1.0330
  686SOL    HW212435   2.049   3.994   2.986 -0.2151  0.9913  1.1066
  687SOL     OW12436   1.130   6.605   2.193 -0.1768 -0.2821 -0.0307
  687SOL    HW112437   1.095   6.538   2.128 -0.4834 -1.3096  1.1727
  687SOL    HW212438   1.104   6.697   2.164 -3.4145 -0.9684  0.5485
  688SOL     OW12439   8.120   0.642   2.129  0.3296  0.4736  0.2197
  688SOL    HW112440   8.120   0.665   2.032 -2.1308  1.0279  0.3139
  688SOL    HW212441   8.110   0.543   2.139 -1.4453  0.6085 -0.0950
  689SOL     OW12442   5.767   0.943   2.044 -0.0781 -0.6099 -0.3649
  689SOL    HW112443   5.747   0.944   1.946 -0.9314 -2.5529 -0.2330
  689SOL    HW212444   5.866   0.937   2.058  0.1883  1.7338 -1.0742
  690SOL     OW12445   9.654   6.239   2.540  0.1147  0.5428  0.3002
  690SOL    HW112446   9.621   6.256   2.447  0.2405  0.1699  0.1873
  690SOL    HW212447   9.631   6.318   2.598 -1.1953  0.1856  0.2827
  691SOL     OW12448   3.180   0.344   3.051 -0.6532 -0.8763  0.3248
  691SOL    HW112449   3.207   0.288   3.129 -1.9186  0.4439  1.7624
  691SOL    HW212450   3.258   0.396   3.018 -0.0899 -1.5124  0.6626
  692SOL     OW12451   6.277   1.163   4.398  0.1697  0.6786  0.4392
  692SOL    HW112452   6.323   1.182   4.311 -0.4915  1.1489  0.1935
  692SOL    HW212453   6.241   1.248   4.436 -1.3781  0.1586  0.1463
  693SOL     OW12454   5.016   3.434   0.623 -0.5251  0.0726  0.0790
  693SOL    HW112455   5.079   3.498   0.667 -0.6210  0.9288 -1.0266
  693SOL    HW212456   4.924   3.473   0.623 -0.5880 -0.0831 -0.5993
  696SOL     OW12457   0.755   8.419   2.867  0.1727 -0.5589 -0.0057
  696SOL    HW112458   0.668   8.466   2.855  2.4575  3.8014 -0.9947
  696SOL    HW212459   0.766   8.394   2.964 -2.2426 -1.4299  0.0741
  697SOL     OW12460   7.988   2.215   4.025 -0.3815  0.0317  0.6700
  697SOL    HW112461   8.021   2.238   4.117  0.4873 -0.0546  0.3856
  697SOL    HW212462   7.888   2.222   4.023 -0.2054  3.2825  0.7425
  698SOL     OW12463   2.877   3.814   0.951 -0.0998  0.5721  0.0355
  698SOL    HW112464   2.948   3.850   1.012  0.3854 -2.2712  1.2055
  698SOL    HW212465   2.794   3.796   1.004 -0.7950  1.2512 -0.8072
  699SOL     OW12466   5.174   2.982   3.597  0.6663 -1.1183 -0.3388
  699SOL    HW112467   5.170   2.933   3.684 -2.4544  0.6770  0.5920
  699SOL    HW212468   5.144   2.922   3.523  1.0959 -1.9196  0.1259
  700SOL     OW12469   4.092   1.285   3.181  0.5398 -0.8972 -0.0984
  700SOL    HW112470   4.068   1.189   3.165  0.3588 -1.0911  1.2976
  700SOL    HW212471   4.071   1.338   3.099 -0.4485 -1.8492 -0.4786
  702SOL     OW12472   0.205   4.130   0.695  0.4064  0.3485  0.7410
  702SOL    HW112473   0.271   4.176   0.637  0.7788  0.0271  0.9112
  702SOL    HW212474   0.242   4.120   0.787  1.1017 -1.9777  0.2395
  703SOL     OW12475   6.878   6.288   2.582  0.0239  0.3456  0.0998
  703SOL    HW112476   6.797   6.328   2.626 -0.2898  0.7754 -0.8556
  703SOL    HW212477   6.958   6.307   2.638 -0.6061 -0.5388  1.3264
  706SOL     OW12478   0.052   5.523   0.772  0.0713 -0.6276  0.1874
  706SOL    HW112479   0.001   5.442   0.745 -2.1634  0.5844  0.6490
  706SOL    HW212480   0.013   5.561   0.856  0.8419  1.1036 -0.2049
  707SOL     OW12481   7.338   8.388   1.616  0.7506 -0.5368 -0.5439
  707SOL    HW112482   7.397   8.467   1.598  0.6205 -0.5369 -0.9834
  707SOL    HW212483   7.323   8.379   1.714 -2.4369  2.3444 -0.6436
  708SOL     OW12484   2.236   3.040   3.693 -0.1562 -0.2368  0.3185
  708SOL    HW112485   2.296   3.040   3.772 -0.5399 -1.2455  0.6150
  708SOL    HW212486   2.172   2.964   3.699 -1.4142  0.7623 -0.0270
  709SOL     OW12487   6.044   1.996   2.510  0.6121 -0.2983  0.1765
  709SOL    HW112488   5.986   2.049   2.570  1.2939  0.5280  0.1142
  709SOL    HW212489   6.118   2.053   2.475  1.8628 -1.5004  0.7851
  711SOL     OW12490   1.001   2.433   2.636  0.0516 -0.4448  0.2456
  711SOL    HW112491   0.911   2.426   2.678 -0.2896 -0.3168 -0.4606
  711SOL    HW212492   1.070   2.445   2.707 -0.4229 -1.1425  0.8271
  712SOL     OW12493   8.754   1.460   0.057 -0.3805  0.3661 -0.0928
  712SOL    HW112494   8.783   1.472   0.152 -0.6721  1.3374 -0.1167
  712SOL    HW212495   8.780   1.369   0.025  1.5672  0.7900  0.2531
  713SOL     OW12496   0.470   6.476   0.969  0.4003  0.3171 -0.4893
  713SOL    HW112497   0.411   6.490   1.049  1.7675  2.3789  0.2028
  713SOL    HW212498   0.554   6.530   0.980  0.7207  0.4153 -3.1992
  715SOL     OW12499   8.244   9.362   3.985 -0.4849 -0.4703  0.6223
  715SOL    HW112500   8.145   9.355   3.975 -0.5371 -0.1225  0.8989
  715SOL    HW212501   8.288   9.324   3.904 -0.8366 -0.9471  0.6512
  716SOL     OW12502   7.077   7.150   3.960  0.7602  0.1407 -0.0085
  716SOL    HW112503   7.110   7.163   4.053  2.4307  0.3032 -0.6110
  716SOL    HW212504   7.070   7.053   3.940 -1.8278  0.0530  1.0281
  717SOL     OW12505   8.418   9.867   3.493  0.7354 -0.3825  0.2219
  717SOL    HW112506   8.502   9.826   3.456  0.2671 -0.8799 -0.2845
  717SOL    HW212507   8.417   9.965   3.472  0.1028 -0.8001 -1.7726
  718SOL     OW12508   3.729   6.182   3.562 -0.1494  0.3297 -0.4394
  718SOL    HW112509   3.740   6.279   3.586 -0.6889  0.0880  0.8362
  718SOL    HW212510   3.804   6.153   3.503 -0.3936  1.7232 -1.4464
  719SOL     OW12511   9.798   4.782   1.101  0.2200 -0.7844  0.3796
  719SOL    HW112512   9.735   4.849   1.064  0.2222 -0.7975  0.3522
  719SOL    HW212513   9.770   4.690   1.074  0.4393 -0.7665  0.0902
  721SOL     OW12514   8.031   4.952   1.706  0.0501  0.3396  0.0143
  721SOL    HW112515   7.976   5.036   1.704 -1.0052 -0.3124  1.1476
  721SOL    HW212516   8.027   4.908   1.616  1.8779  2.2867 -1.0698
  723SOL     OW12517   1.327   9.121   3.263  0.1721 -0.2022 -0.6449
  723SOL    HW112518   1.236   9.155   3.242 -0.0732 -1.3718 -1.5437
  723SOL    HW212519   1.368   9.176   3.336 -1.2275  0.3447 -0.2659
  724SOL     OW12520   7.993   3.242   0.641 -0.5927 -0.2101 -0.2273
  724SOL    HW112521   7.932   3.217   0.565 -0.2201 -1.5656 -0.1032
  724SOL    HW212522   8.059   3.168   0.655  0.8714  1.0987 -0.1403
  725SOL     OW12523   4.131   0.606   2.178 -0.1465 -0.7390 -0.5226
  725SOL    HW112524   4.183   0.689   2.200  1.2148 -1.3593 -1.3281
  725SOL    HW212525   4.035   0.621   2.199  0.1352  0.9266 -0.3156
  726SOL     OW12526   9.560   5.777   0.871  0.0616  0.5655  0.2408
  726SOL    HW112527   9.472   5.775   0.824 -0.2777  3.1418  0.7114
  726SOL    HW212528   9.604   5.687   0.863 -2.7062 -0.8501  0.2433
  727SOL     OW12529   8.070   3.278   3.277 -0.1024  0.5690  0.3180
  727SOL    HW112530   8.155   3.271   3.226 -0.9723  0.0277 -1.0944
  727SOL    HW212531   8.041   3.373   3.282 -1.0962  0.4412 -2.0791
  728SOL     OW12532   5.332   3.515   0.242 -0.4404 -0.0248  0.5439
  728SOL    HW112533   5.414   3.552   0.286 -0.4606 -0.6262  1.0930
  728SOL    HW212534   5.253   3.532   0.301 -0.4567 -0.9028  0.7869
  729SOL     OW12535   9.238   4.557   3.030 -0.4891  0.0072  0.6231
  729SOL    HW112536   9.287   4.577   3.115 -0.0133 -0.2596  0.4161
  729SOL    HW212537   9.204   4.642   2.991  0.3574  0.2691  0.4424
  730SOL     OW12538   0.639   1.287   0.294 -0.3313 -0.0794  0.2169
  730SOL    HW112539   0.737   1.268   0.288 -0.1782  0.1222  1.8241
  730SOL    HW212540   0.624   1.386   0.306 -0.7928  0.0250 -1.1109
  732SOL     OW12541   8.390   1.251   2.812 -0.0538  0.2034 -0.0387
  732SOL    HW112542   8.363   1.291   2.724 -0.4077 -1.5332 -0.7346
  732SOL    HW212543   8.487   1.228   2.809 -0.0604  0.1676  0.0312
  734SOL     OW12544   9.257   4.216   0.517  0.4966 -0.8494  0.1154
  734SOL    HW112545   9.159   4.199   0.528  0.3319  0.3078  0.5224
  734SOL    HW212546   9.306   4.129   0.518 -0.7335 -1.5949 -2.3731
  735SOL     OW12547   1.590   8.131   0.855  0.0353 -0.4853 -0.6100
  735SOL    HW112548   1.563   8.206   0.915 -1.6228 -1.4859 -0.0854
  735SOL    HW212549   1.559   8.044   0.894  1.5615 -1.4127 -1.4209
  736SOL     OW12550   1.357   4.850   4.435  0.5065 -0.7934 -0.2152
  736SOL    HW112551   1.353   4.935   4.384  1.3483  0.9285  2.4944
  736SOL    HW212552   1.265   4.827   4.468  0.3276 -0.8213 -0.7189
  737SOL     OW12553   6.535   9.626   1.882  0.7732  0.2783  0.1361
  737SOL    HW112554   6.503   9.659   1.970 -0.4719 -0.4513 -0.0329
  737SOL    HW212555   6.515   9.693   1.811 -0.4688 -0.1973  0.0211
  738SOL     OW12556   1.624   7.614   3.542  0.4316 -0.1718 -0.0073
  738SOL    HW112557   1.655   7.539   3.484 -0.5687 -2.2228  1.9901
  738SOL    HW212558   1.527   7.631   3.526  0.0941 -0.9023  1.1802
  739SOL     OW12559   9.265   1.367   0.069  0.1741  0.5310  0.1198
  739SOL    HW112560   9.229   1.447   0.116 -0.9805 -0.5122  1.0249
  739SOL    HW212561   9.327   1.317   0.130  0.2996  0.3182 -0.1781
  740SOL     OW12562   9.905   8.878   0.675  0.1593 -0.1026  0.3086
  740SOL    HW112563   9.844   8.813   0.629 -2.7818  1.4564  1.8320
  740SOL    HW212564   9.930   8.842   0.765  1.3486 -0.6285 -0.2167
  741SOL     OW12565   4.186   9.121   3.877  0.5178  0.7147  0.1999
  741SOL    HW112566   4.228   9.031   3.868  1.9109  1.4921 -1.3110
  741SOL    HW212567   4.104   9.126   3.820  0.2082  0.2776  0.6021
  742SOL     OW12568   9.767   5.921   0.483 -1.2175  0.5059 -0.1036
  742SOL    HW112569   9.712   5.844   0.450 -1.6218  0.6551  0.2175
  742SOL    HW212570   9.720   5.964   0.561  0.2590 -0.5491  1.3992
  743SOL     OW12571   3.712   0.769   4.236  0.1144 -0.4118  0.0395
  743SOL    HW112572   3.668   0.838   4.293  0.0040 -0.3468 -0.1241
  743SOL    HW212573   3.807   0.795   4.220 -0.2115  0.2305 -0.8765
  744SOL     OW12574   2.341   0.673   1.734  0.0178  0.3529 -0.1647
  744SOL    HW112575   2.389   0.748   1.688  1.5353  0.0141  0.8368
  744SOL    HW212576   2.304   0.610   1.666  0.7257  0.7845 -0.9517
  746SOL     OW12577   8.223   7.627   2.866  0.2048 -0.1404 -0.5671
  746SOL    HW112578   8.200   7.625   2.963  0.8561  0.5678 -0.3911
  746SOL    HW212579   8.310   7.579   2.852  0.3079  0.1061 -0.7519
  748SOL     OW12580   9.506   7.082   0.785 -0.1256  0.3158  0.2561
  748SOL    HW112581   9.515   7.005   0.848 -0.4512 -0.1475 -0.2597
  748SOL    HW212582   9.440   7.059   0.714 -1.5628  1.7582  1.1022
  749SOL     OW12583   5.281   0.889   2.800 -0.3006  0.1150 -0.6880
  749SOL    HW112584   5.248   0.806   2.845  1.6937 -0.0907  0.4524
  749SOL    HW212585   5.204   0.935   2.754 -1.8553 -1.1439  0.5880
  750SOL     OW12586   0.201   5.243   1.313  0.0001 -1.5332 -0.2042
  750SOL    HW112587   0.101   5.246   1.310  0.0482  0.5310 -0.5984
  750SOL    HW212588   0.237   5.267   1.222  0.8514 -1.9882  0.0171
  751SOL     OW12589   8.734   0.852   2.254  0.9015 -0.3699  0.3938
  751SOL    HW112590   8.750   0.755   2.238 -0.0125 -0.5882  0.7856
  751SOL    HW212591   8.667   0.863   2.328  0.6609  0.5419  0.0458
  752SOL     OW12592   7.443   5.369   4.301  0.6222 -0.0985 -0.4546
  752SOL    HW112593   7.516   5.346   4.237 -0.9202 -0.1335 -2.2481
  752SOL    HW212594   7.393   5.448   4.267 -2.0334 -1.8724 -0.7478
  753SOL     OW12595   8.889   8.712   1.715  0.0346 -0.6907 -0.1733
  753SOL    HW112596   8.867   8.768   1.794 -0.9811 -0.9937 -0.2380
  753SOL    HW212597   8.856   8.756   1.632  1.4147 -0.1941 -0.4811
  754SOL     OW12598   2.611   8.274   2.626  0.1241 -1.0063  0.4004
  754SOL    HW112599   2.603   8.210   2.549  0.7126 -2.1752  1.2859
  754SOL    HW212600   2.595   8.367   2.594  2.4006 -1.2304 -1.5616
  755SOL     OW12601   8.674   2.287   3.699  0.1168  0.0103 -0.5252
  755SOL    HW112602   8.595   2.243   3.656 -0.2979  0.4711 -0.2439
  755SOL    HW212603   8.749   2.222   3.705 -1.3211 -1.5040  2.2598
  757SOL     OW12604   3.864   6.368   0.773  0.1806 -0.4100  0.9975
  757SOL    HW112605   3.783   6.316   0.747  0.4709 -2.3142  3.7025
  757SOL    HW212606   3.905   6.408   0.691 -2.0875 -1.4574 -0.7087
  758SOL     OW12607   8.212   4.397   2.390 -0.2145  0.0399 -0.1693
  758SOL    HW112608   8.229   4.371   2.485 -0.1550 -0.7011 -0.3770
  758SOL    HW212609   8.280   4.464   2.361  0.1100 -0.1544  0.1380
  759SOL     OW12610   7.639   0.366   4.060 -0.6006 -0.6100 -0.1955
  759SOL    HW112611   7.634   0.318   4.147 -0.4924 -1.1279 -0.4729
  759SOL    HW212612   7.618   0.302   3.985 -3.5769  0.4804 -0.3547
  760SOL     OW12613   0.636   7.030   0.646  0.7471 -0.8773  0.0662
  760SOL    HW112614   0.665   6.948   0.597 -0.2212 -0.2912 -1.5388
  760SOL    HW212615   0.695   7.107   0.620 -0.7196 -0.2213 -1.3769
  762SOL     OW12616   1.960   0.953   2.846 -0.2758 -0.1153 -0.2512
  762SOL    HW112617   2.053   0.989   2.848 -0.2899 -0.0219 -1.0259
  762SOL    HW212618   1.909   0.987   2.925  0.7150 -1.1736  0.8776
  765SOL     OW12619   1.694   4.250   4.134  0.4906 -0.1583  0.2468
  765SOL    HW112620   1.757   4.324   4.110  1.5060 -0.9180  0.5224
  765SOL    HW212621   1.746   4.167   4.152 -0.6940 -1.1208 -0.7083
  766SOL     OW12622   0.227   2.460   3.811  0.2498 -0.1486  0.3506
  766SOL    HW112623   0.174   2.457   3.895 -1.8267 -1.2585 -0.9549
  766SOL    HW212624   0.171   2.499   3.738  2.0242  0.8091 -0.5197
  768SOL     OW12625   4.606   3.346   2.687  0.3321  0.3442 -0.0192
  768SOL    HW112626   4.654   3.259   2.683  0.6615  0.4707  1.0739
  768SOL    HW212627   4.643   3.401   2.762 -1.9271  0.2154  1.2268
  769SOL     OW12628   4.869   7.843   2.218 -0.0117  0.1219  0.5443
  769SOL    HW112629   4.800   7.849   2.290 -0.3068  0.2354  0.2512
  769SOL    HW212630   4.947   7.901   2.241  0.0530 -0.1313  0.9532
  770SOL     OW12631   9.418   4.878   3.414  0.3335  0.1240 -0.6839
  770SOL    HW112632   9.340   4.830   3.374 -1.0100  0.6514  1.1946
  770SOL    HW212633   9.483   4.811   3.450  0.4729 -0.3141 -1.7272
  771SOL     OW12634   0.573   7.897   3.481 -0.2066  0.2945 -0.0850
  771SOL    HW112635   0.519   7.981   3.487 -0.4524  0.0861  0.6779
  771SOL    HW212636   0.669   7.917   3.501 -0.5080  0.1439  1.6132
  773SOL     OW12637   9.752   0.863   4.388  0.2402  0.3498 -0.4294
  773SOL    HW112638   9.680   0.856   4.318  0.2169 -0.8585 -0.2833
  773SOL    HW212639   9.710   0.882   4.476 -0.0981 -2.5106  0.0604
  774SOL     OW12640   1.980   0.010   3.521 -0.2359  0.2473  0.3471
  774SOL    HW112641   1.897  -0.016   3.471 -0.5259  0.4119  0.7402
  774SOL    HW212642   2.020   0.092   3.480  0.3285 -0.4456 -0.5053
  775SOL     OW12643   2.935   9.415   2.005  0.2324 -0.1448  0.2657
  775SOL    HW112644   2.934   9.509   1.970 -0.9136 -0.6828 -1.1947
  775SOL    HW212645   2.894   9.413   2.096 -2.1983  0.3891 -0.7742
  776SOL     OW12646   4.754   1.416   4.158  0.4622  0.7552  0.1889
  776SOL    HW112647   4.780   1.465   4.242 -0.5736 -1.3824  1.8060
  776SOL    HW212648   4.761   1.318   4.174 -0.4024  0.3181 -2.0431
  777SOL     OW12649   6.997   0.209   4.365 -0.5379 -0.1756  0.0092
  777SOL    HW112650   6.984   0.253   4.276  0.8413  0.0130 -0.0999
  777SOL    HW212651   7.043   0.273   4.427  1.6451 -1.4927 -0.2032
  778SOL     OW12652   4.156   4.684   1.545  0.8334  0.2203  0.5980
  778SOL    HW112653   4.209   4.766   1.524  0.8741 -0.5863 -2.7198
  778SOL    HW212654   4.069   4.687   1.497  0.2791 -1.1037  1.4813
  779SOL     OW12655   8.440   2.768   1.776  0.2525 -0.4473  0.6171
  779SOL    HW112656   8.439   2.850   1.718 -1.1617  0.5921  2.0551
  779SOL    HW212657   8.526   2.719   1.763  0.4689  0.4175 -1.4316
  781SOL     OW12658   2.281   4.984   4.211 -0.3974 -0.0823  0.0481
  781SOL    HW112659   2.348   4.911   4.201 -1.1976 -0.8530  0.2339
  781SOL    HW212660   2.328   5.071   4.225  0.5818 -0.3328 -1.6502
  782SOL     OW12661   9.576   7.932   1.847 -0.7981  0.2928  0.5697
  782SOL    HW112662   9.631   7.948   1.928 -0.6822  0.2362  0.5013
  782SOL    HW212663   9.618   7.976   1.768 -0.3246 -0.5870  0.3274
  784SOL     OW12664   7.522   8.124   1.838 -0.7044  0.1531 -0.0937
  784SOL    HW112665   7.553   8.063   1.911 -0.6946  0.6202  0.2954
  784SOL    HW212666   7.586   8.120   1.762  1.5291  2.7178  1.5427
  785SOL     OW12667   4.579   6.396   1.737 -0.1975 -0.0545  0.0039
  785SOL    HW112668   4.596   6.339   1.817  0.8888 -2.1936 -1.6802
  785SOL    HW212669   4.620   6.486   1.751 -1.0422  0.0000  2.3003
  787SOL     OW12670   9.502   4.811   1.307  0.5190  0.2250 -0.6222
  787SOL    HW112671   9.440   4.868   1.360  0.0485 -0.1820 -0.7267
  787SOL    HW212672   9.533   4.861   1.226  0.2638  0.4032 -0.6084
  788SOL     OW12673   8.849   1.842   3.645 -0.3007  0.4789  0.2327
  788SOL    HW112674   8.854   1.751   3.603  1.1347  1.4556 -1.7557
  788SOL    HW212675   8.768   1.890   3.611  2.1977  2.2396 -3.5440
  789SOL     OW12676   0.760   6.799   1.759  0.5629 -0.1043 -0.6946
  789SOL    HW112677   0.772   6.834   1.666  1.2492  0.1146 -0.5221
  789SOL    HW212678   0.663   6.801   1.782  0.4778  0.6626 -1.0896
  790SOL     OW12679   4.346   6.689   1.148 -0.1538  0.2257 -0.1322
  790SOL    HW112680   4.248   6.681   1.132 -0.0530 -1.9687  0.3148
  790SOL    HW212681   4.381   6.605   1.188  1.6949  1.4487  0.8920
  791SOL     OW12682   8.614   3.512   4.417  0.1585  0.6265  0.0573
  791SOL    HW112683   8.683   3.458   4.368  0.3282  0.4532  0.4851
  791SOL    HW212684   8.573   3.457   4.489 -1.3417  0.3220 -1.0099
  793SOL     OW12685   1.186   3.209   3.040 -0.4126 -0.2177  0.0304
  793SOL    HW112686   1.184   3.173   2.947 -0.5596  1.7236 -0.7541
  793SOL    HW212687   1.246   3.289   3.044  1.2162 -1.4994  2.0871
  794SOL     OW12688   7.176   7.142   2.255  0.2590 -0.1106  0.2807
  794SOL    HW112689   7.162   7.068   2.190  0.5244 -0.1451  0.2658
  794SOL    HW212690   7.089   7.191   2.269 -0.2083 -1.2036  1.2395
  795SOL     OW12691   3.582   9.930   4.189 -0.1540  0.0031 -0.1074
  795SOL    HW112692   3.505   9.869   4.204 -0.4695  0.4343  0.0347
  795SOL    HW212693   3.631   9.902   4.106 -0.5354 -0.1949 -0.2694
  796SOL     OW12694   1.169   1.314   3.307  0.6188  0.0820  0.3880
  796SOL    HW112695   1.152   1.340   3.212 -2.8070 -1.7552  0.4135
  796SOL    HW212696   1.102   1.359   3.367  0.1206 -1.9764  1.4186
  797SOL     OW12697   8.849   1.474   0.327 -0.0512  0.0664  0.1632
  797SOL    HW112698   8.886   1.420   0.402  1.3731  1.1071  0.2431
  797SOL    HW212699   8.764   1.518   0.356  0.6436  0.6945  1.2658
  798SOL     OW12700   3.751   8.635   0.030 -0.1432 -0.8242  0.4848
  798SOL    HW112701   3.784   8.706   0.093  0.2386  0.1588 -0.7996
  798SOL    HW212702   3.825   8.570   0.013  0.4809  0.1869 -0.7259
  799SOL     OW12703   4.468   0.645   2.938 -0.2273 -0.0419 -0.3606
  799SOL    HW112704   4.406   0.668   3.013  0.0363  0.1454 -0.2008
  799SOL    HW212705   4.562   0.662   2.966 -0.0438 -1.1854 -0.2999
  800SOL     OW12706   2.035   0.019   1.400  0.8390  0.0586  0.6195
  800SOL    HW112707   2.127   0.026   1.440  1.1801 -0.1999 -0.1162
  800SOL    HW212708   2.027   0.084   1.325 -0.3874  1.7922  2.2190
  802SOL     OW12709   8.757   3.685   2.902  0.1446 -0.0250  0.5499
  802SOL    HW112710   8.688   3.742   2.947 -1.0037 -0.9335 -0.0527
  802SOL    HW212711   8.712   3.614   2.849  1.5237  0.1549 -0.8983
  804SOL     OW12712   9.766   0.783   1.394  0.0257  0.1073 -0.2585
  804SOL    HW112713   9.757   0.684   1.382  3.1758 -0.3905  1.1208
  804SOL    HW212714   9.761   0.805   1.492  1.8169  1.0374 -0.3663
  805SOL     OW12715   1.155   2.050   2.567 -0.0774 -0.0975  0.2660
  805SOL    HW112716   1.244   2.096   2.566  0.2283 -0.6886  0.0645
  805SOL    HW212717   1.089   2.105   2.619  0.2276  0.6666 -0.1486
  806SOL     OW12718   5.226   0.866   0.471  0.3654 -0.4564  0.0247
  806SOL    HW112719   5.297   0.933   0.494 -0.7810  0.9016 -0.3261
  806SOL    HW212720   5.221   0.797   0.543 -0.3003  1.3792  1.7857
  808SOL     OW12721   1.890   3.986   2.316  0.1794  0.1000  0.0400
  808SOL    HW112722   1.841   3.913   2.268 -0.0757 -0.1689  0.7021
  808SOL    HW212723   1.902   3.961   2.412 -0.2283  1.0708  0.3581
  809SOL     OW12724   3.666   5.036   1.527 -0.2069  0.0371  0.8805
  809SOL    HW112725   3.649   4.977   1.606  3.0915 -2.2848 -0.0376
  809SOL    HW212726   3.593   5.023   1.460 -2.7739  1.6604  3.2397
  810SOL     OW12727   3.089   8.447   2.932 -0.1305  0.1666  0.2551
  810SOL    HW112728   3.098   8.411   2.839  2.8320 -0.9384  0.8962
  810SOL    HW212729   3.055   8.375   2.993 -1.6343  0.7579  0.1282
  811SOL     OW12730   5.106   2.799   2.284  0.6241  0.3318 -0.4145
  811SOL    HW112731   5.132   2.769   2.193  1.4798  2.2170 -0.8209
  811SOL    HW212732   5.013   2.837   2.282  0.1756 -0.7550 -0.2433
  812SOL     OW12733   8.786   9.301   1.883 -0.5223  0.0916 -0.9957
  812SOL    HW112734   8.774   9.400   1.885 -0.9234  0.0402 -0.8063
  812SOL    HW212735   8.840   9.273   1.963 -0.7171  0.1190 -0.8534
  813SOL     OW12736   2.518   5.625   1.435 -0.4144 -0.1279 -0.1490
  813SOL    HW112737   2.526   5.609   1.337 -2.4830 -0.5813 -0.2765
  813SOL    HW212738   2.447   5.693   1.452 -0.0162  0.0053  1.0276
  814SOL     OW12739   0.325   2.103   1.877  0.1841  0.0457 -0.8867
  814SOL    HW112740   0.289   2.186   1.921  1.4013 -0.3121  0.8342
  814SOL    HW212741   0.295   2.100   1.782 -1.8635  1.2549 -0.3184
  815SOL     OW12742   8.455   2.263   3.866  0.8034  0.2740  0.4556
  815SOL    HW112743   8.531   2.287   3.806  0.8705  1.2162  0.9009
  815SOL    HW212744   8.466   2.309   3.954 -0.7019  1.1073  0.2303
  816SOL     OW12745   2.099   9.414   0.201  0.2444 -0.3353 -0.1157
  816SOL    HW112746   2.067   9.333   0.249  1.5598 -0.7925  0.0098
  816SOL    HW212747   2.154   9.471   0.263 -0.9408  0.8361 -0.1026
  818SOL     OW12748   0.994   5.894   4.317 -0.5670  0.1351  0.5957
  818SOL    HW112749   1.037   5.864   4.403 -0.5710  0.2486  0.6366
  818SOL    HW212750   0.992   5.994   4.314  0.0817  0.1293  0.1342
  819SOL     OW12751   3.012   2.513   0.585 -0.3283  0.0288 -0.2805
  819SOL    HW112752   2.913   2.514   0.596 -0.6165  1.0591 -2.6774
  819SOL    HW212753   3.053   2.586   0.640 -0.7524 -1.0817  1.5724
  820SOL     OW12754   3.106   5.344   1.168 -0.0605  0.3435  0.1003
  820SOL    HW112755   3.077   5.248   1.164 -1.8653  0.8695 -0.3410
  820SOL    HW212756   3.025   5.402   1.181  0.8405  1.8841 -0.9771
  821SOL     OW12757   6.543   8.390   3.312  0.2697  0.9757 -0.4049
  821SOL    HW112758   6.473   8.349   3.255 -0.2193  2.5375 -0.9727
  821SOL    HW212759   6.554   8.337   3.396  1.0629 -1.4044 -1.9566
  822SOL     OW12760   3.426   8.261   0.110  0.3361 -0.1257  1.0380
  822SOL    HW112761   3.477   8.341   0.077 -0.3537 -0.5108 -1.0689
  822SOL    HW212762   3.383   8.282   0.197  1.4503  1.2808  1.2630
  824SOL     OW12763   9.739   2.801   1.606  0.8469  0.4384 -0.1693
  824SOL    HW112764   9.717   2.818   1.510  0.2550 -1.6166 -0.4277
  824SOL    HW212765   9.693   2.869   1.663  0.4307  1.1018 -1.2740
  825SOL     OW12766   9.552   7.717   1.333  0.5474 -0.4708 -0.3360
  825SOL    HW112767   9.638   7.737   1.285  0.7294 -2.7196 -1.0499
  825SOL    HW212768   9.563   7.732   1.431  0.2300  4.0349 -0.8879
  826SOL     OW12769   8.173   2.689   2.348  0.2176  0.0292  0.2754
  826SOL    HW112770   8.216   2.604   2.380  0.7290  0.2156  0.0879
  826SOL    HW212771   8.077   2.691   2.377 -0.3766 -1.5922 -1.4849
  827SOL     OW12772   2.143   9.114   3.020 -0.0178 -0.1278 -0.5356
  827SOL    HW112773   2.170   9.206   3.046  0.6716 -0.5836  0.3885
  827SOL    HW212774   2.174   9.095   2.927 -0.4190  0.6639 -0.8407
  828SOL     OW12775   2.058   9.434   2.879 -0.1265 -0.5094  0.1515
  828SOL    HW112776   2.064   9.467   2.974 -0.2638 -1.0539  0.3491
  828SOL    HW212777   2.103   9.500   2.819 -1.3212  0.5642  0.4213
  829SOL     OW12778   2.800   9.796   1.690 -0.1833 -0.4117 -1.0420
  829SOL    HW112779   2.837   9.828   1.603  0.8075 -0.6150 -0.7003
  829SOL    HW212780   2.706   9.830   1.701 -0.0844  0.1449 -1.8946
  830SOL     OW12781   2.228   8.708   1.940  0.0700 -0.2458 -0.1682
  830SOL    HW112782   2.290   8.657   1.881 -0.2277  0.3679 -1.0160
  830SOL    HW212783   2.278   8.743   2.019  0.3733 -1.4532  0.1819
  832SOL     OW12784   8.697   7.805   4.406  0.0573  0.1351 -0.4439
  832SOL    HW112785   8.773   7.740   4.401 -0.9663 -1.1138  0.0875
  832SOL    HW212786   8.624   7.776   4.343 -0.0963  1.1849 -0.7615
  834SOL     OW12787   4.858   8.873   3.139 -0.7450 -0.1626 -0.0422
  834SOL    HW112788   4.941   8.912   3.179 -1.6609  0.1059  1.6516
  834SOL    HW212789   4.779   8.929   3.164 -1.5718 -0.9673 -0.8000
  835SOL     OW12790   0.431   3.038   1.221  0.7136 -0.4704 -0.1977
  835SOL    HW112791   0.418   3.106   1.149 -0.8391  0.2723  0.7697
  835SOL    HW212792   0.497   2.970   1.190  1.3932  0.8024 -1.6466
  836SOL     OW12793   2.125   0.433   0.872  0.0874  0.0483 -0.3028
  836SOL    HW112794   2.211   0.449   0.822  0.4277 -0.3227  0.1551
  836SOL    HW212795   2.146   0.408   0.966 -0.5498  0.5249 -0.0346
  838SOL     OW12796   9.430   9.406   2.231 -0.1208 -0.7373 -0.3669
  838SOL    HW112797   9.368   9.476   2.267 -0.1893 -0.8302 -0.3023
  838SOL    HW212798   9.511   9.450   2.191 -0.9218 -0.5427 -1.7903
  842SOL     OW12799   0.326   3.776   3.465  0.5103  0.8765 -0.0968
  842SOL    HW112800   0.269   3.813   3.391  2.0507  0.5726 -1.4493
  842SOL    HW212801   0.324   3.839   3.543 -1.5981  0.9110 -0.1456
  844SOL     OW12802   1.307   4.295   3.311  0.0594 -0.1792 -0.0820
  844SOL    HW112803   1.362   4.296   3.394  1.1820  0.0637 -0.8194
  844SOL    HW212804   1.230   4.358   3.322 -1.0691 -1.8025  1.5925
  845SOL     OW12805   8.885   0.405   1.544  0.0189  0.0612  0.0207
  845SOL    HW112806   8.975   0.445   1.564 -0.0315  1.2206 -1.9752
  845SOL    HW212807   8.888   0.307   1.565  1.6115  0.1612  0.3954
  846SOL     OW12808   7.652   7.714   2.153  0.4082  0.0710  0.7134
  846SOL    HW112809   7.584   7.656   2.198 -1.4780  0.8282 -1.0995
  846SOL    HW212810   7.693   7.665   2.077 -0.0328  0.5374  0.1692
  847SOL     OW12811   9.657   2.498   3.941 -0.1325 -0.0840 -0.3657
  847SOL    HW112812   9.614   2.455   3.862  1.7642 -0.7220 -1.0702
  847SOL    HW212813   9.752   2.521   3.919  0.0212  0.9217  1.2902
  848SOL     OW12814   7.209   8.612   1.268 -0.1379  0.1466 -0.1524
  848SOL    HW112815   7.306   8.593   1.255 -0.3850 -0.7823 -0.6922
  848SOL    HW212816   7.182   8.586   1.361  0.3707  1.4444  0.3630
  849SOL     OW12817   4.524   2.704   4.110 -0.1255  0.0703  0.0864
  849SOL    HW112818   4.542   2.777   4.045 -0.5938  1.5488  1.5705
  849SOL    HW212819   4.452   2.645   4.075  1.5818 -0.8589 -2.0085
  851SOL     OW12820   5.465   8.459   3.996 -0.0942  0.3631 -0.4878
  851SOL    HW112821   5.548   8.464   3.939  0.4253  0.2507  0.2591
  851SOL    HW212822   5.438   8.364   4.007 -2.0710  0.5263 -3.2285
  853SOL     OW12823   7.750   2.330   0.648  0.0853 -0.0173 -0.7362
  853SOL    HW112824   7.762   2.429   0.655 -0.7672  0.1325 -1.2341
  853SOL    HW212825   7.775   2.300   0.556  0.1818 -0.2351 -0.6373
  854SOL     OW12826   9.014   8.369   1.023  0.3477 -0.3771 -0.0931
  854SOL    HW112827   9.067   8.445   0.987  2.4101 -1.0964  1.2807
  854SOL    HW212828   8.989   8.388   1.118  0.9348 -1.4332  0.2809
  855SOL     OW12829   3.435   5.069   1.395 -0.6450 -0.3269 -0.1346
  855SOL    HW112830   3.456   5.135   1.323 -1.2550 -1.1830 -1.1014
  855SOL    HW212831   3.356   5.101   1.447 -1.3514 -0.6246 -1.0229
  856SOL     OW12832   3.260   0.183   1.266 -0.2587  0.6042  0.4625
  856SOL    HW112833   3.202   0.135   1.200  0.9937  1.6461 -1.4512
  856SOL    HW212834   3.219   0.272   1.287  0.4758  1.2311 -0.6907
  857SOL     OW12835   3.524   1.792   2.096 -0.1827 -0.3330 -0.1588
  857SOL    HW112836   3.573   1.759   2.177 -2.0201 -0.2535  0.9968
  857SOL    HW212837   3.467   1.870   2.120 -0.6509 -0.2205 -1.5689
  858SOL     OW12838   7.516   3.395   1.204 -0.0186 -0.0769  0.4282
  858SOL    HW112839   7.505   3.494   1.218  0.6817 -0.0811  1.0558
  858SOL    HW212840   7.555   3.354   1.286  0.1002 -0.8112  0.0100
  859SOL     OW12841   9.652   6.502   2.269 -0.4986  0.2320  0.2211
  859SOL    HW112842   9.603   6.584   2.300  0.8655 -0.4830  4.5391
  859SOL    HW212843   9.589   6.425   2.266 -1.5483  1.1291 -2.8486
  860SOL     OW12844   9.299   2.912   2.069 -0.6580 -0.1912 -0.2164
  860SOL    HW112845   9.313   2.859   1.986 -0.8400 -1.0621  0.3028
  860SOL    HW212846   9.377   2.900   2.131 -1.2258 -0.7820  0.3934
  861SOL     OW12847   0.657   9.989   1.172 -0.6280  0.3810 -0.4801
  861SOL    HW112848   0.560  10.008   1.156 -0.5254  0.6098 -0.8366
  861SOL    HW212849   0.673   9.972   1.269 -0.7439  1.9726 -0.1773
  862SOL     OW12850   9.097   4.593   1.897  0.2804 -0.0250  0.4200
  862SOL    HW112851   9.037   4.518   1.871 -0.5738  1.5650 -2.4204
  862SOL    HW212852   9.052   4.648   1.968 -0.1730 -0.7276  0.6868
  863SOL     OW12853   1.635   8.863   1.713  0.0003 -0.4770 -0.3480
  863SOL    HW112854   1.641   8.769   1.678  2.6600 -0.7214  0.6144
  863SOL    HW212855   1.675   8.926   1.647 -0.4325 -0.2070 -0.3531
  864SOL     OW12856   9.268   9.246   2.957  0.2402 -0.5502 -0.1052
  864SOL    HW112857   9.319   9.185   2.895 -0.8395 -0.8765 -0.6861
  864SOL    HW212858   9.191   9.196   2.995 -0.3212  0.3004 -0.1343
  865SOL     OW12859   0.223   9.754   3.207 -0.8173  0.3865 -0.0580
  865SOL    HW112860   0.265   9.671   3.170 -0.8668  0.1728  0.3637
  865SOL    HW212861   0.142   9.778   3.153 -0.1987  0.7545 -0.8264
  866SOL     OW12862   2.368   1.000   4.106 -0.0446 -0.1710 -0.2409
  866SOL    HW112863   2.380   1.028   4.201 -2.0138 -0.7117  0.1897
  866SOL    HW212864   2.326   1.075   4.054  1.4646  0.2987 -0.8153
  867SOL     OW12865   4.393   3.802   1.436 -0.3717 -0.3886 -0.3035
  867SOL    HW112866   4.318   3.757   1.485  0.1235  0.9892  1.7901
  867SOL    HW212867   4.359   3.836   1.349 -2.0129 -0.4293  0.2968
  868SOL     OW12868   4.744   3.208   1.085  0.4529  0.4872 -0.3633
  868SOL    HW112869   4.829   3.259   1.069  1.0595 -0.6860 -0.9514
  868SOL    HW212870   4.752   3.117   1.045 -0.7859  0.0779  0.3023
  869SOL     OW12871   4.411   3.429   3.393  0.3484 -0.2319  0.0126
  869SOL    HW112872   4.338   3.408   3.328  1.5491  0.0356 -1.4226
  869SOL    HW212873   4.384   3.396   3.484 -1.9257  0.6002 -0.3118
  870SOL     OW12874   1.005   1.948   3.785 -0.7055  0.0346  0.2793
  870SOL    HW112875   1.083   1.889   3.765 -1.5075 -1.6522  2.0410
  870SOL    HW212876   1.014   1.986   3.877 -0.7226  1.8603 -0.4479
  871SOL     OW12877   2.273   3.290   2.572  0.2782 -0.0299  0.2265
  871SOL    HW112878   2.347   3.332   2.519  0.7229  0.2543  1.0755
  871SOL    HW212879   2.298   3.287   2.669 -1.0262  0.4994  0.5860
  872SOL     OW12880   2.191   9.968   0.517 -0.5314 -0.6539  0.5313
  872SOL    HW112881   2.130   9.977   0.596  0.6819 -0.4458  1.4531
  872SOL    HW212882   2.285   9.953   0.548 -0.1629 -1.4157 -0.8771
  873SOL     OW12883   0.215   1.402   2.276  0.1713  0.5748  0.3206
  873SOL    HW112884   0.125   1.423   2.237  0.5040  0.0045 -0.7671
  873SOL    HW212885   0.250   1.483   2.324  0.2890  1.6977 -1.6117
  874SOL     OW12886   7.569   4.861   0.894 -0.1176 -0.1667  0.2040
  874SOL    HW112887   7.509   4.827   0.822  1.1789 -1.4715 -0.2761
  874SOL    HW212888   7.545   4.956   0.914 -0.2376  0.3619 -2.2222
  875SOL     OW12889   7.919   8.738   3.509  0.5245  0.0360 -0.0096
  875SOL    HW112890   7.898   8.702   3.600 -1.9639 -1.2534 -1.0449
  875SOL    HW212891   8.016   8.724   3.490  0.8299 -0.7909  1.9522
  876SOL     OW12892   3.922   8.747   0.999  0.1256  0.1295 -0.3671
  876SOL    HW112893   3.890   8.769   1.092  1.0233  1.6681 -0.3955
  876SOL    HW212894   3.931   8.832   0.947  1.0647 -0.5914 -1.3920
  877SOL     OW12895   0.480   8.383   2.901 -0.1191  0.0574  0.3298
  877SOL    HW112896   0.453   8.301   2.951 -2.8981  1.6569  1.5923
  877SOL    HW212897   0.438   8.463   2.945  1.0236  1.9591 -1.9695
  878SOL     OW12898   5.161   4.351   0.328 -0.0289  0.0929 -0.2004
  878SOL    HW112899   5.156   4.378   0.232  1.5244 -1.0870 -0.6265
  878SOL    HW212900   5.068   4.342   0.365 -0.6216  1.7251 -1.2415
  882SOL     OW12901   2.117   1.098   3.771  0.2942  0.0738  0.2987
  882SOL    HW112902   2.187   1.146   3.824  1.1442 -0.3634 -0.4254
  882SOL    HW212903   2.040   1.160   3.756 -0.1304  0.0899  2.3496
  885SOL     OW12904   8.604   3.592   2.243 -0.1306  0.0027  0.1283
  885SOL    HW112905   8.665   3.546   2.308  1.5340  1.1983 -0.5399
  885SOL    HW212906   8.648   3.594   2.153 -1.5191  0.2017 -0.5506
  887SOL     OW12907   9.186   1.405   2.050  0.3699 -0.7097  0.3255
  887SOL    HW112908   9.224   1.372   1.964  1.4409 -1.9120  1.2350
  887SOL    HW212909   9.107   1.350   2.075  0.5335 -0.8776  0.4864
  888SOL     OW12910   0.721   2.037   3.787 -0.3187  0.3912  0.1302
  888SOL    HW112911   0.805   1.986   3.770  1.0922  2.5066  0.5763
  888SOL    HW212912   0.743   2.134   3.804 -2.6962  0.7018  1.7493
  889SOL     OW12913   7.774   7.384   3.752  0.0986  0.2880  0.2946
  889SOL    HW112914   7.758   7.454   3.821  1.3671 -0.4046  1.3113
  889SOL    HW212915   7.745   7.418   3.663  1.8117  2.5788  0.5693
  890SOL     OW12916   2.476   4.644   3.814 -0.3379  0.1026 -0.1489
  890SOL    HW112917   2.417   4.654   3.734  0.3358  0.4805 -0.5982
  890SOL    HW212918   2.565   4.608   3.786  0.2107  1.0843  0.3034
  891SOL     OW12919   1.509   1.622   2.760 -0.2388  0.4901  0.0675
  891SOL    HW112920   1.475   1.563   2.833  0.2951  2.0629  1.6403
  891SOL    HW212921   1.604   1.598   2.738 -0.0295  0.7297  0.6909
  892SOL     OW12922   0.679   3.739   0.699  0.2408  0.9682 -0.4406
  892SOL    HW112923   0.593   3.783   0.673  0.3600  2.1463  1.0912
  892SOL    HW212924   0.732   3.801   0.756  0.8839 -0.7906  0.9218
  893SOL     OW12925   9.491   8.937   1.430 -0.3775  0.1623  0.0404
  893SOL    HW112926   9.404   8.899   1.400 -0.6044 -0.4022  1.3931
  893SOL    HW212927   9.535   8.874   1.494  0.3771  1.0757  0.4310
  894SOL     OW12928   9.735   5.591   3.854  0.1367  0.2950 -0.1727
  894SOL    HW112929   9.704   5.656   3.924  0.4272  0.6222 -0.3441
  894SOL    HW212930   9.736   5.499   3.893 -0.1780  0.4050  0.1054
  896SOL     OW12931   9.335   7.130   1.695 -0.1579  0.0917  0.4616
  896SOL    HW112932   9.252   7.163   1.651  0.0649 -0.1231 -0.1141
  896SOL    HW212933   9.330   7.031   1.707 -0.1752  0.1353  0.8294
  897SOL     OW12934   8.731   6.005   1.003 -0.2731 -0.3713  0.2938
  897SOL    HW112935   8.675   5.948   1.063 -0.2545 -0.7101 -0.0093
  897SOL    HW212936   8.819   5.961   0.988 -1.2925 -1.6559 -2.2103
  898SOL     OW12937   7.700   7.622   1.590 -0.1285 -0.4450 -0.1010
  898SOL    HW112938   7.622   7.647   1.648 -0.0935 -4.9554  2.0930
  898SOL    HW212939   7.784   7.627   1.644  0.4284 -0.6887 -0.9441
  899SOL     OW12940   9.907   5.464   4.328 -0.0830  0.5062  0.2581
  899SOL    HW112941   9.987   5.413   4.359 -0.4979 -0.7720 -0.7214
  899SOL    HW212942   9.936   5.552   4.290  0.9566 -0.2917 -0.8639
  900SOL     OW12943   5.755   0.286   2.494  0.1755  0.1466  0.2042
  900SOL    HW112944   5.774   0.199   2.540 -1.3262 -0.3822 -0.1409
  900SOL    HW212945   5.723   0.353   2.561 -0.7724 -0.2385  0.1513
  901SOL     OW12946   1.895   6.829   1.528  0.2397  0.0204 -0.2038
  901SOL    HW112947   1.911   6.859   1.622 -0.7046 -1.2144  0.3664
  901SOL    HW212948   1.800   6.799   1.518  1.0328 -2.3807 -0.8507
  903SOL     OW12949   2.133   6.104   1.409  0.2504 -0.0116 -0.2624
  903SOL    HW112950   2.131   6.036   1.336 -0.4206 -1.2378  0.8944
  903SOL    HW212951   2.202   6.174   1.387  0.0452 -0.3567 -2.0626
  904SOL     OW12952   4.988   8.140   1.774  0.0662 -0.0394  0.3995
  904SOL    HW112953   4.993   8.093   1.686  1.5616 -1.3033  1.1348
  904SOL    HW212954   4.917   8.210   1.770 -0.0469 -0.2362 -1.7317
  906SOL     OW12955   3.390   0.818   0.379 -0.4005 -0.2344  0.0522
  906SOL    HW112956   3.428   0.888   0.439  1.0715 -0.1535 -0.9251
  906SOL    HW212957   3.333   0.861   0.309  2.5197  0.3324 -2.0933
  907SOL     OW12958   3.753   6.397   1.809 -0.0901 -0.8313 -0.0641
  907SOL    HW112959   3.713   6.440   1.728 -1.3924 -2.6456 -0.4244
  907SOL    HW212960   3.852   6.387   1.797  0.2179  1.9315  0.0036
  910SOL     OW12961   1.535   6.183   3.755  0.4930 -0.2830  0.0332
  910SOL    HW112962   1.515   6.278   3.777  1.1835 -0.2470  0.5362
  910SOL    HW212963   1.505   6.163   3.662  0.0390  0.3308  0.0485
  912SOL     OW12964   1.868   9.597   3.775 -0.0381  0.0865  0.3054
  912SOL    HW112965   1.947   9.630   3.826 -0.6184  1.4097  0.3572
  912SOL    HW212966   1.823   9.525   3.827  1.5039 -1.1594 -0.0230
  913SOL     OW12967   9.591   8.168   1.613  0.2318  0.2300 -0.6962
  913SOL    HW112968   9.665   8.101   1.606 -0.3101 -0.4577  0.1343
  913SOL    HW212969   9.626   8.251   1.658  0.8874  0.5101 -1.6889
  914SOL     OW12970   7.350   8.723   3.953 -0.2283 -0.2891  0.3661
  914SOL    HW112971   7.349   8.625   3.972  1.0847  0.1026  2.5915
  914SOL    HW212972   7.264   8.764   3.983 -0.1734 -0.5095  0.8240
  916SOL     OW12973   1.003   6.982   0.712  0.0813  0.4619 -0.0744
  916SOL    HW112974   0.979   6.896   0.667 -0.5281  1.3886 -1.5514
  916SOL    HW212975   0.942   7.054   0.681  2.4969  2.0896 -1.1969
  917SOL     OW12976   1.445   6.035   3.194 -0.3512  0.0009 -0.4619
  917SOL    HW112977   1.367   5.975   3.212  0.6840 -1.0297  0.6661
  917SOL    HW212978   1.415   6.130   3.200 -1.4736 -0.3780  0.2375
  918SOL     OW12979   3.910   7.464   4.154 -0.1153 -0.4373  0.3559
  918SOL    HW112980   3.983   7.518   4.196 -0.3632 -0.4377  0.7895
  918SOL    HW212981   3.845   7.525   4.108  0.2946 -0.4530 -0.2558
  919SOL     OW12982   9.953   5.371   3.422  0.2373  0.0208 -0.0734
  919SOL    HW112983   9.910   5.446   3.471 -1.5922  0.2984 -1.9874
  919SOL    HW212984   9.982   5.402   3.331 -0.6971 -1.5804 -0.9529
  920SOL     OW12985   6.322   0.089   3.166 -0.1359 -0.4341  0.1870
  920SOL    HW112986   6.243   0.065   3.223 -0.2847 -1.5994 -0.5026
  920SOL    HW212987   6.304   0.063   3.072  1.2018 -0.9794  0.0770
  922SOL     OW12988   4.278   0.102   2.351 -0.7648 -0.2624  0.3712
  922SOL    HW112989   4.222   0.154   2.286 -1.0231 -0.8072  0.1543
  922SOL    HW212990   4.375   0.114   2.329 -0.7003  1.8989  1.6545
  923SOL     OW12991   2.762   5.912   2.522  0.6969  0.1808 -0.2578
  923SOL    HW112992   2.747   6.004   2.485  0.7405 -0.3212 -1.5328
  923SOL    HW212993   2.854   5.905   2.559  0.8475  0.5110 -0.5698
  924SOL     OW12994   1.918   3.074   0.177 -0.3671 -0.3884 -1.0724
  924SOL    HW112995   1.969   3.160   0.185 -2.3877  0.6478  1.3122
  924SOL    HW212996   1.943   3.013   0.252 -0.0473 -1.2727 -1.8977
  925SOL     OW12997   4.936   6.942   2.456 -0.3630  0.5545  0.2055
  925SOL    HW112998   4.843   6.934   2.491 -0.0432 -0.5481  0.8325
  925SOL    HW212999   4.999   6.962   2.531  0.1751 -0.7458  0.1334
  926SOL     OW13000   4.421   8.259   0.596 -0.5117 -0.0744  0.1809
  926SOL    HW113001   4.452   8.165   0.614 -1.6257 -0.1592  1.7779
  926SOL    HW213002   4.450   8.318   0.672 -1.4928  0.4806  0.1256
  927SOL     OW13003   5.183   0.394   3.273  0.1064  0.0545 -0.6392
  927SOL    HW113004   5.179   0.323   3.202 -0.4434 -1.4054  0.8244
  927SOL    HW213005   5.093   0.406   3.314  0.4439  0.8119 -0.0985
  928SOL     OW13006   8.649   7.184   3.718  0.1208  0.2323  0.3217
  928SOL    HW113007   8.738   7.206   3.758 -0.7229  0.4851  2.1365
  928SOL    HW213008   8.577   7.229   3.771 -1.3761 -3.3499  1.5051
  929SOL     OW13009   9.605   3.757   3.968  0.2486  0.3205 -0.0161
  929SOL    HW113010   9.666   3.818   4.017 -0.6266  0.6742  0.6481
  929SOL    HW213011   9.521   3.743   4.021 -0.8129  0.8965 -1.4939
  931SOL     OW13012   7.112   7.118   2.800  0.2420  0.7353 -0.0793
  931SOL    HW113013   7.089   7.170   2.718 -0.6688  1.7170  0.7749
  931SOL    HW213014   7.058   7.034   2.803  0.3248  0.6658 -0.5070
  932SOL     OW13015   7.212   8.876   1.534  0.3881  0.1029 -0.2702
  932SOL    HW113016   7.137   8.858   1.598 -0.6249  2.2581 -0.7972
  932SOL    HW213017   7.294   8.826   1.563 -0.7774 -0.9626  1.2541
  933SOL     OW13018   9.048   0.306   0.098 -0.3918  0.2134 -0.3239
  933SOL    HW113019   9.098   0.363   0.163  0.5980 -0.9221 -0.0735
  933SOL    HW213020   8.958   0.285   0.136  1.1771 -2.6971  1.9594
  934SOL     OW13021   7.776   2.709   1.387 -0.4342  0.1254 -0.0263
  934SOL    HW113022   7.867   2.670   1.401  0.1432  1.2151 -0.6487
  934SOL    HW213023   7.708   2.636   1.388  0.4216 -0.6771  0.6369
  935SOL     OW13024   4.462   9.008   4.096  0.3131 -0.3610  0.0595
  935SOL    HW113025   4.431   8.946   4.168 -1.1992 -0.0658 -0.3321
  935SOL    HW213026   4.473   9.100   4.134 -1.8236  0.1018 -0.3668
  937SOL     OW13027   8.491   3.341   2.107  0.6308  0.5442  0.2246
  937SOL    HW113028   8.513   3.385   2.020  0.3498  2.3862  1.0819
  937SOL    HW213029   8.470   3.410   2.176 -0.0062 -0.9309  1.5417
  938SOL     OW13030   5.040   8.034   2.017 -0.2850  0.0924  0.3627
  938SOL    HW113031   5.049   7.935   2.005 -1.8319 -0.0371  0.1396
  938SOL    HW213032   5.014   8.075   1.929  0.9520  0.7807  0.3130
  939SOL     OW13033   2.338   1.324   2.909  0.3929  0.4410 -0.2854
  939SOL    HW113034   2.410   1.271   2.953  0.8025 -0.1496 -1.6311
  939SOL    HW213035   2.379   1.394   2.850 -0.1410  2.2336  1.4136
  943SOL     OW13036   5.901   7.218   3.887 -0.0022  0.6218 -0.3816
  943SOL    HW113037   5.896   7.257   3.979  1.3222 -0.2849  0.1039
  943SOL    HW213038   5.818   7.240   3.836 -1.9877 -1.1390  1.9471
  944SOL     OW13039   8.490   3.462   1.875 -0.2513 -0.2380  0.3292
  944SOL    HW113040   8.418   3.518   1.833 -0.2116 -0.9214 -0.6909
  944SOL    HW213041   8.545   3.419   1.802 -0.3583 -1.6788  1.0781
  946SOL     OW13042   4.331   1.214   1.652 -0.1121 -0.4356  0.5513
  946SOL    HW113043   4.315   1.122   1.687 -0.6746 -1.1447 -1.5207
  946SOL    HW213044   4.398   1.210   1.577  1.0534  1.0487  1.4762
  947SOL     OW13045   4.007   1.437   2.961  0.3616 -0.3730 -0.2454
  947SOL    HW113046   3.970   1.529   2.969 -0.8545 -0.7426 -1.4916
  947SOL    HW213047   4.048   1.425   2.871 -0.6796 -1.4743 -0.5835
  948SOL     OW13048   4.901   1.603   2.918 -0.8756 -0.0584 -0.4171
  948SOL    HW113049   4.807   1.633   2.899 -1.0831 -0.2695  0.2568
  948SOL    HW213050   4.964   1.679   2.903 -1.1433  0.0629 -0.9511
  949SOL     OW13051   6.545   0.593   0.524  0.2645  0.1974  0.0218
  949SOL    HW113052   6.635   0.629   0.548 -0.5035  1.1013  1.5897
  949SOL    HW213053   6.552   0.537   0.441  2.1618  0.7184 -0.1738
  950SOL     OW13054   3.638   8.482   1.262 -0.3305  0.8173  0.4774
  950SOL    HW113055   3.577   8.561   1.271  0.8771  2.1995 -2.7040
  950SOL    HW213056   3.587   8.405   1.225 -0.7131  1.2464  0.0923
  952SOL     OW13057   6.482   7.555   1.961 -0.2887 -0.0134  0.6718
  952SOL    HW113058   6.397   7.588   1.921 -0.2829 -1.4614 -0.5930
  952SOL    HW213059   6.560   7.599   1.917 -0.3226 -0.5844  0.0286
  954SOL     OW13060   3.299   2.045   1.378  0.2127  0.2665  0.2618
  954SOL    HW113061   3.386   2.040   1.328  0.2104 -0.6917  0.3373
  954SOL    HW213062   3.316   2.026   1.475  0.1038  1.3486  0.4998
  955SOL     OW13063   9.467   0.155   2.735 -0.0452 -0.3153  0.3052
  955SOL    HW113064   9.445   0.069   2.780  0.0015  0.3707  1.6616
  955SOL    HW213065   9.425   0.231   2.786 -0.9920  0.3935 -1.4587
  956SOL     OW13066   1.810   8.584   1.186 -0.0162 -0.1655 -0.6315
  956SOL    HW113067   1.829   8.671   1.231 -0.2488 -0.5464  0.2190
  956SOL    HW213068   1.809   8.511   1.255 -0.7462 -0.7028 -1.2033
  957SOL     OW13069   5.787   9.042   2.021 -0.1342  0.0850  0.3519
  957SOL    HW113070   5.749   9.043   2.114 -2.2556 -3.8899 -0.3451
  957SOL    HW213071   5.885   9.022   2.026 -0.4195 -1.0823  1.7384
  958SOL     OW13072   8.124   2.842   2.936  0.0726 -0.2569  0.1351
  958SOL    HW113073   8.086   2.750   2.927  1.1740 -0.6740 -0.3538
  958SOL    HW213074   8.173   2.866   2.852  0.5798  0.4183  0.6204
  959SOL     OW13075   4.925   3.075   3.589 -0.3804 -0.0276 -0.0026
  959SOL    HW113076   5.023   3.056   3.587 -0.0136  1.8094 -0.1675
  959SOL    HW213077   4.910   3.174   3.593 -2.2215 -0.3210  0.7307
  960SOL     OW13078   4.314   7.167   2.456 -0.1184 -0.2294 -0.0550
  960SOL    HW113079   4.238   7.169   2.391 -1.0956  1.3852  1.1271
  960SOL    HW213080   4.279   7.180   2.549  1.6987  1.4964  0.4051
  961SOL     OW13081   0.212   3.518   3.324  0.0899 -0.7052  0.2774
  961SOL    HW113082   0.159   3.484   3.403 -0.2820  0.8892  0.7238
  961SOL    HW213083   0.273   3.591   3.354 -0.7345  0.5722 -1.0812
  963SOL     OW13084   8.403   8.338   3.326 -0.1115 -0.3399 -0.2474
  963SOL    HW113085   8.395   8.257   3.269 -2.1753  1.6938 -3.0285
  963SOL    HW213086   8.349   8.326   3.409 -1.3780 -1.3641 -1.2038
  964SOL     OW13087   4.429   9.885   2.345 -0.0589 -0.4449  0.2504
  964SOL    HW113088   4.335   9.914   2.364 -0.3282 -1.9062  1.1990
  964SOL    HW213089   4.492   9.947   2.392 -0.4767  1.2416 -1.3070
  966SOL     OW13090   2.649   3.846   2.563  0.3163 -0.1394 -0.2931
  966SOL    HW113091   2.645   3.781   2.639 -2.1912 -0.1543 -0.4177
  966SOL    HW213092   2.669   3.796   2.478 -0.6430 -0.6392 -0.2341
  967SOL     OW13093   2.648   4.220   0.629  0.1487  0.2162  0.1405
  967SOL    HW113094   2.638   4.139   0.572 -2.7104  0.6477 -0.0663
  967SOL    HW213095   2.722   4.207   0.695  1.7339 -1.3279 -1.8803
  968SOL     OW13096   2.227   6.046   0.628  0.5400  0.1607  0.0137
  968SOL    HW113097   2.278   6.040   0.543  0.7647 -0.4194  0.1858
  968SOL    HW213098   2.216   6.142   0.654  2.6215  0.2534  0.6144
  969SOL     OW13099   3.093   1.793   3.542  0.1164  0.4321  0.0467
  969SOL    HW113100   3.052   1.701   3.543  0.7182  0.0890 -2.7261
  969SOL    HW213101   3.023   1.861   3.561 -0.2359 -0.6064  2.6808
  970SOL     OW13102   1.107   8.274   3.723  0.4889  0.5806 -0.0796
  970SOL    HW113103   1.103   8.243   3.818  2.6365 -0.2769 -0.2297
  970SOL    HW213104   1.202   8.297   3.699  0.2265 -0.6330 -2.4478
  972SOL     OW13105   4.418   4.274   2.101 -0.2380 -0.0029 -0.0758
  972SOL    HW113106   4.415   4.177   2.077 -1.2540 -0.3920  1.5521
  972SOL    HW213107   4.511   4.299   2.128  0.1023 -0.4326 -0.8373
  973SOL     OW13108   4.647   9.138   4.425  0.1807  0.0931  0.3003
  973SOL    HW113109   4.577   9.114   4.492 -0.9611  0.1452 -0.8528
  973SOL    HW213110   4.638   9.235   4.401  1.4300  0.4002  1.0521
  975SOL     OW13111   8.292   9.445   1.257 -0.1868  0.3276  0.3971
  975SOL    HW113112   8.390   9.453   1.275  0.2836 -1.4515 -1.1220
  975SOL    HW213113   8.278   9.414   1.162 -2.1790 -0.6959  0.9894
  976SOL     OW13114   7.927   1.878   0.810  0.5127  0.3121 -0.1881
  976SOL    HW113115   8.018   1.851   0.842  1.4036  1.2419 -1.8399
  976SOL    HW213116   7.924   1.977   0.800 -0.9416  0.3468  0.5833
  977SOL     OW13117   7.576   1.017   1.187  0.1548  0.0593 -0.0985
  977SOL    HW113118   7.478   1.025   1.208  0.4309  0.7513  0.9309
  977SOL    HW213119   7.618   1.108   1.189  0.8637 -0.2589 -0.3714
  978SOL     OW13120   9.156   0.935   3.686  0.5393  0.3854 -0.0042
  978SOL    HW113121   9.095   0.910   3.761 -0.9720 -0.6505 -1.5406
  978SOL    HW213122   9.251   0.931   3.717  0.1387 -3.3703  0.9388
  979SOL     OW13123   0.328   7.310   0.211 -0.6234  0.4378  0.3631
  979SOL    HW113124   0.408   7.368   0.194  0.1308 -0.0165  2.2014
  979SOL    HW213125   0.245   7.366   0.213 -0.1083  1.2016  0.4614
  981SOL     OW13126   5.943   9.394   1.886 -0.4973  0.0465 -0.1050
  981SOL    HW113127   5.862   9.390   1.828  0.1017 -3.8401 -0.8316
  981SOL    HW213128   5.934   9.328   1.961  0.7364  1.7083  1.5724
  984SOL     OW13129   0.157   5.041   3.892 -0.4601  0.1326  0.2522
  984SOL    HW113130   0.190   4.959   3.845  1.5313  0.2504  1.3829
  984SOL    HW213131   0.088   5.086   3.836  0.8453 -0.4867 -1.8994
  985SOL     OW13132   2.460   5.029   2.621  0.0721 -0.1692  0.4140
  985SOL    HW113133   2.448   5.027   2.522  0.5666  2.4753  0.2675
  985SOL    HW213134   2.373   5.009   2.666 -0.5098  0.1762 -0.5539
  986SOL     OW13135   9.068   1.235   3.208 -0.0922  0.4184 -0.3967
  986SOL    HW113136   9.107   1.144   3.195 -1.0841 -0.0355 -0.2251
  986SOL    HW213137   9.004   1.234   3.285  0.2871  1.3873 -0.0586
  987SOL     OW13138   9.403   1.409   3.260  0.2228  0.3007 -0.1880
  987SOL    HW113139   9.473   1.431   3.192  0.7391 -2.0984 -0.4865
  987SOL    HW213140   9.437   1.337   3.320 -1.2500  0.5234  0.9252
  989SOL     OW13141   7.603   1.565   2.407  0.6280  0.4827 -0.2488
  989SOL    HW113142   7.541   1.627   2.360 -2.4281  0.5422  3.6330
  989SOL    HW213143   7.641   1.611   2.488  0.6157 -1.7330  1.0534
  990SOL     OW13144   4.872   0.654   1.423 -0.5272 -0.1669 -0.4834
  990SOL    HW113145   4.885   0.689   1.515 -0.3053 -0.0686 -0.5535
  990SOL    HW213146   4.924   0.569   1.411 -0.5423 -0.1701 -0.5260
  991SOL     OW13147   7.719   2.901   0.852  0.0124  0.5006  0.4780
  991SOL    HW113148   7.633   2.854   0.872 -0.1426  0.4669 -0.2590
  991SOL    HW213149   7.754   2.871   0.763 -0.5592  2.4400 -0.4487
  993SOL     OW13150   9.452   1.374   3.703  0.4890  0.3399 -0.2954
  993SOL    HW113151   9.538   1.337   3.669  0.9891  0.1932  1.1033
  993SOL    HW213152   9.457   1.474   3.707  0.2178  0.3993 -1.1679
  994SOL     OW13153   9.245   9.230   0.688  0.6059 -0.3499  0.1331
  994SOL    HW113154   9.228   9.329   0.685 -0.0328 -0.4699 -0.2451
  994SOL    HW213155   9.297   9.208   0.771 -1.3731 -0.0189  1.4966
  995SOL     OW13156   2.008   5.025   4.333  0.0120 -0.7439 -0.0267
  995SOL    HW113157   2.017   5.124   4.321  3.5259 -0.8888  0.7767
  995SOL    HW213158   2.082   4.979   4.283 -1.1765 -2.9564  0.1683
  996SOL     OW13159   3.077   0.326   3.681 -0.0050  0.1060 -0.4745
  996SOL    HW113160   3.022   0.334   3.598  0.2092  0.4269 -0.5875
  996SOL    HW213161   3.141   0.250   3.671  0.1876  0.2989 -0.7006
  997SOL     OW13162   7.944   3.883   1.560  0.3089  0.1198 -0.5401
  997SOL    HW113163   7.908   3.800   1.603  0.0123  0.4930 -0.0651
  997SOL    HW213164   8.032   3.863   1.518  0.6950 -0.2042  0.4073
  998SOL     OW13165   8.453   9.817   0.187 -0.8752  0.0713  0.1082
  998SOL    HW113166   8.417   9.788   0.275  0.9478  1.9565  1.5465
  998SOL    HW213167   8.508   9.743   0.147  1.0371  0.3046  2.1677
  999SOL     OW13168   2.016   4.117   2.064  0.2004 -0.3541 -0.4061
  999SOL    HW113169   1.934   4.137   2.012  0.5980  1.3359 -0.4342
  999SOL    HW213170   1.992   4.067   2.148 -0.6529 -1.2836 -1.2020
 1000SOL     OW13171   7.473   8.526   1.278 -0.2457  0.0181 -0.7657
 1000SOL    HW113172   7.540   8.547   1.350 -1.4648  0.2369  0.3311
 1000SOL    HW213173   7.481   8.430   1.252  1.6883  0.4615 -1.9206
 1002SOL     OW13174   9.897   4.973   3.730 -0.3615 -0.1883  0.1145
 1002SOL    HW113175   9.804   4.938   3.735 -0.0177 -1.0610  0.5211
 1002SOL    HW213176   9.897   5.072   3.749 -1.1442 -0.2746  0.5752
 1003SOL     OW13177   1.785   1.535   2.739 -0.2820  0.0730 -0.0221
 1003SOL    HW113178   1.762   1.440   2.716  2.0884 -0.9552  1.6200
 1003SOL    HW213179   1.833   1.537   2.827 -0.7860  2.8745  0.2317
 1004SOL     OW13180   8.829   5.390   1.690 -0.3200  0.1436 -0.5074
 1004SOL    HW113181   8.894   5.453   1.731 -2.1268  1.2252  0.7527
 1004SOL    HW213182   8.837   5.300   1.734 -0.0238  0.4005 -0.0310
 1005SOL     OW13183   8.313   7.050   1.860  0.3638  0.0001 -0.3964
 1005SOL    HW113184   8.331   6.962   1.815 -0.7628  0.6039 -2.0783
 1005SOL    HW213185   8.345   7.124   1.801  1.6250  0.7187  1.1684
 1006SOL     OW13186   1.506   5.730   0.418 -0.1948  0.4023 -0.2449
 1006SOL    HW113187   1.574   5.692   0.356  0.1955 -1.0538  1.0507
 1006SOL    HW213188   1.416   5.727   0.375  0.1444 -0.1434 -0.9183
 1007SOL     OW13189   1.352   7.213   3.498 -0.0226  0.0293 -0.2721
 1007SOL    HW113190   1.433   7.157   3.485  0.1522 -0.0260  0.9602
 1007SOL    HW213191   1.375   7.291   3.557 -1.2055 -0.7867  1.2944
 1009SOL     OW13192   5.003   9.375   3.844 -0.3220 -0.4704 -0.0691
 1009SOL    HW113193   4.914   9.353   3.803  0.4101 -1.4127 -1.1832
 1009SOL    HW213194   5.051   9.440   3.785 -0.3055  0.1005  0.5748
 1010SOL     OW13195   2.311   7.583   2.064  0.3948 -0.7519  0.1908
 1010SOL    HW113196   2.282   7.492   2.093  0.4978 -0.6073  0.7564
 1010SOL    HW213197   2.238   7.649   2.083  0.0985 -0.8095 -0.7408
 1011SOL     OW13198   9.875   2.656   3.835 -0.3575  0.1664  0.1372
 1011SOL    HW113199   9.851   2.675   3.740 -0.4180  0.9042  0.2899
 1011SOL    HW213200   9.956   2.710   3.860  0.0946 -0.5857  0.2860
 1012SOL     OW13201   8.998   9.374   0.383 -0.2786 -0.3778  0.2000
 1012SOL    HW113202   9.004   9.282   0.345 -3.3074 -0.1874 -0.9050
 1012SOL    HW213203   8.902   9.401   0.390  0.5413  2.7235  0.4840
 1013SOL     OW13204   0.537   5.512   1.779  0.1413  0.2068  0.2312
 1013SOL    HW113205   0.493   5.435   1.733 -0.5519  1.1332 -0.6909
 1013SOL    HW213206   0.468   5.568   1.826  0.5549  0.6238  0.3496
 1015SOL     OW13207   4.300   9.508   0.150  0.0470  0.5645 -0.5401
 1015SOL    HW113208   4.359   9.429   0.132 -1.3057 -0.2970 -1.2083
 1015SOL    HW213209   4.341   9.563   0.223  0.4805 -1.3112  0.6708
 1016SOL     OW13210   0.376   7.293   2.791  0.3947  0.6356  0.1823
 1016SOL    HW113211   0.431   7.308   2.873 -0.9706  0.4245  1.1761
 1016SOL    HW213212   0.301   7.230   2.813 -0.2530  0.9303 -1.1158
 1017SOL     OW13213   4.863   9.199   2.405  0.2958  0.1967  0.2577
 1017SOL    HW113214   4.847   9.174   2.309  0.6579  1.1007 -0.0428
 1017SOL    HW213215   4.810   9.138   2.464 -0.1512 -0.1876 -0.5254
 1018SOL     OW13216   8.465   2.380   1.489  0.0291 -0.0072  0.2055
 1018SOL    HW113217   8.536   2.431   1.538 -1.5310  2.3272  0.0965
 1018SOL    HW213218   8.495   2.362   1.396  0.9420 -0.0437  0.4978
 1019SOL     OW13219   8.202   4.305   1.727 -0.0943  0.3314  0.2165
 1019SOL    HW113220   8.230   4.316   1.823 -1.0608 -0.7140  0.6239
 1019SOL    HW213221   8.164   4.214   1.713  0.4560  0.3182 -1.2806
 1020SOL     OW13222   8.832   3.178   3.214  0.4850 -0.7699  0.4970
 1020SOL    HW113223   8.732   3.177   3.225  0.2952  1.2919 -0.8026
 1020SOL    HW213224   8.874   3.212   3.298 -0.0939  0.8693  0.1565
 1021SOL     OW13225   6.112   8.712   1.811 -0.4847  0.0433 -0.1221
 1021SOL    HW113226   6.150   8.802   1.786  0.4988 -0.2816  0.1940
 1021SOL    HW213227   6.182   8.642   1.800 -1.5668 -0.8767 -1.4525
 1022SOL     OW13228   6.056   8.366   2.972 -0.1644 -0.2196 -0.2210
 1022SOL    HW113229   6.036   8.272   2.998 -1.8496 -0.5222 -2.5022
 1022SOL    HW213230   6.148   8.371   2.932 -0.1052 -0.9061 -0.1655
 1023SOL     OW13231   5.072   3.744   2.374 -0.3605 -1.1882 -0.7327
 1023SOL    HW113232   5.123   3.659   2.366 -2.1199 -2.4204  0.7629
 1023SOL    HW213233   4.983   3.735   2.329 -1.1788 -0.6806  0.7443
 1026SOL     OW13234   9.211   4.146   4.175  0.1377 -0.5975 -0.0383
 1026SOL    HW113235   9.190   4.239   4.145 -0.3063 -0.5651  0.3690
 1026SOL    HW213236   9.308   4.126   4.158 -0.0219 -0.4475 -1.1306
 1027SOL     OW13237   8.250   7.021   2.129  0.2778 -0.6823  0.3934
 1027SOL    HW113238   8.290   7.018   2.038 -0.1761 -1.3786  0.2072
 1027SOL    HW213239   8.315   6.985   2.196 -0.3044 -2.5924 -0.0214
 1028SOL     OW13240   9.323   6.957   0.576  0.3185  0.3716  0.0813
 1028SOL    HW113241   9.295   6.874   0.624  1.4042  0.2838  0.5777
 1028SOL    HW213242   9.382   6.933   0.498 -2.4083  0.4245 -2.0658
 1030SOL     OW13243   2.707   3.143   1.568 -0.3480  0.2295 -0.0003
 1030SOL    HW113244   2.640   3.070   1.558  1.2476 -1.1374 -0.9052
 1030SOL    HW213245   2.782   3.112   1.626 -0.3654  1.6807  0.8351
 1031SOL     OW13246   0.234   0.841   1.096  0.4068 -0.1466  0.3458
 1031SOL    HW113247   0.260   0.801   1.184  1.3491 -0.1830  0.0520
 1031SOL    HW213248   0.295   0.917   1.075 -1.8628  2.0319  1.3037
 1033SOL     OW13249   1.302   6.025   1.472 -0.4007 -1.0452 -0.6769
 1033SOL    HW113250   1.320   6.122   1.454 -0.8540 -0.3499  2.3615
 1033SOL    HW213251   1.381   5.971   1.442  0.8891  0.5296 -0.2193
 1034SOL     OW13252   9.591   6.530   3.452 -0.3011 -0.0536  0.7101
 1034SOL    HW113253   9.640   6.555   3.536  1.5001 -1.3954  0.0866
 1034SOL    HW213254   9.625   6.442   3.418 -0.6989  0.6582 -1.6439
 1035SOL     OW13255   2.956   5.278   2.001 -0.3616 -0.2035 -0.2245
 1035SOL    HW113256   2.918   5.300   2.090  0.4548  0.4591 -0.0280
 1035SOL    HW213257   2.904   5.324   1.929 -1.0764 -0.8143 -0.0988
 1036SOL     OW13258   9.008   9.066   2.586  0.3211  0.0236 -0.5968
 1036SOL    HW113259   9.031   9.161   2.606  0.7167  0.0630 -1.2144
 1036SOL    HW213260   9.021   9.011   2.669 -0.5476  0.6111 -0.0602
 1038SOL     OW13261   9.754   0.505   2.902  0.7951 -0.0199  0.7263
 1038SOL    HW113262   9.678   0.493   2.965  1.6879 -0.4461  1.7404
 1038SOL    HW213263   9.785   0.600   2.903  0.2056  0.1776  0.2271
 1039SOL     OW13264   2.849   0.949   0.573 -0.3173 -0.2918  0.3082
 1039SOL    HW113265   2.763   0.998   0.557 -1.3303 -1.9787  0.4041
 1039SOL    HW213266   2.915   1.011   0.615 -1.8444  0.7721  1.2147
 1040SOL     OW13267   3.391   6.488   3.799  0.6828 -0.4184  0.0144
 1040SOL    HW113268   3.328   6.560   3.768 -0.6145 -1.0688  1.0905
 1040SOL    HW213269   3.360   6.452   3.887  0.4438 -3.3266 -1.1901
 1041SOL     OW13270   3.482   1.362   0.839  0.0479  0.3080 -0.5410
 1041SOL    HW113271   3.553   1.432   0.833 -1.0945  1.5294  0.0356
 1041SOL    HW213272   3.481   1.323   0.931  0.0357  0.2130 -0.5807
 1042SOL     OW13273   3.064   2.866   0.334  0.6908  0.4397 -0.4147
 1042SOL    HW113274   3.117   2.943   0.371 -0.4871  0.5497  1.1044
 1042SOL    HW213275   2.988   2.846   0.396  1.0193 -1.9961 -0.7716
 1044SOL     OW13276   8.918   2.155   2.304 -0.1489 -0.3949 -0.2236
 1044SOL    HW113277   8.887   2.249   2.290  0.0709 -0.4256 -0.9033
 1044SOL    HW213278   8.857   2.092   2.255 -1.5680 -0.7730  1.9346
 1045SOL     OW13279   2.806   1.282   0.780  0.0306  0.1718  0.6507
 1045SOL    HW113280   2.727   1.337   0.752 -0.4289 -0.9306 -0.2865
 1045SOL    HW213281   2.799   1.260   0.877 -0.4890  0.6048  0.7133
 1046SOL     OW13282   3.707   0.036   2.043  0.4552  0.5049 -0.4206
 1046SOL    HW113283   3.742   0.101   2.111  0.0534 -0.0924  0.3717
 1046SOL    HW213284   3.625  -0.008   2.079  0.7266 -0.4445 -0.9501
 1048SOL     OW13285   1.080   1.765   4.164 -0.1279  0.0248  0.2130
 1048SOL    HW113286   0.986   1.772   4.196 -0.6804  0.0467 -1.4032
 1048SOL    HW213287   1.142   1.788   4.239 -1.4081  0.4568  1.1557
 1049SOL     OW13288   0.103   9.373   1.334  0.0548 -0.6159 -0.3589
 1049SOL    HW113289   0.082   9.358   1.238 -1.6109 -0.8294  0.0286
 1049SOL    HW213290   0.169   9.304   1.365 -0.0401 -1.0525 -1.1240
 1050SOL     OW13291   0.477   0.834   3.088  0.3568  0.6565  0.1181
 1050SOL    HW113292   0.403   0.860   3.149  1.1888 -0.2061  1.5398
 1050SOL    HW213293   0.563   0.874   3.121  0.6401  1.0584 -1.0975
 1051SOL     OW13294   2.974   8.777   4.060 -0.3609 -0.3309  0.0852
 1051SOL    HW113295   2.965   8.876   4.045 -1.4882 -0.3955  0.2456
 1051SOL    HW213296   3.004   8.761   4.154  1.0006 -0.1058 -0.3080
 1052SOL     OW13297   2.841   5.157   1.087  0.0476 -0.2355  0.1492
 1052SOL    HW113298   2.770   5.226   1.073  0.2307 -0.0936 -0.0679
 1052SOL    HW213299   2.857   5.146   1.185  0.4384  0.4528  0.1645
 1053SOL     OW13300   9.187   6.999   3.810 -0.4280  0.2658 -0.3427
 1053SOL    HW113301   9.116   6.966   3.872 -0.2384 -2.0704 -1.2868
 1053SOL    HW213302   9.157   7.083   3.765 -2.4197 -0.4514 -0.4038
 1054SOL     OW13303   4.127   7.754   0.998 -0.0791 -0.1112 -0.1785
 1054SOL    HW113304   4.153   7.667   0.956 -1.5075  0.5700 -2.5390
 1054SOL    HW213305   4.089   7.736   1.089  1.8250 -1.7281  0.3336
 1056SOL     OW13306   4.013   6.608   3.579  0.3563  0.4866  0.0658
 1056SOL    HW113307   4.100   6.579   3.538  0.3526  0.3645  0.1429
 1056SOL    HW213308   3.951   6.530   3.583  0.0465  0.7061 -0.4896
 1057SOL     OW13309   0.891   1.324   2.229 -0.3441  0.0579 -0.4330
 1057SOL    HW113310   0.911   1.420   2.249  0.9016  0.2981 -2.7050
 1057SOL    HW213311   0.827   1.318   2.153  1.4080 -0.9229 -1.8665
 1058SOL     OW13312   1.105   4.423   1.843 -0.2704 -0.3950  0.0469
 1058SOL    HW113313   1.143   4.346   1.791 -0.8854 -0.5036 -0.2423
 1058SOL    HW213314   1.121   4.407   1.941 -0.4359 -0.9171 -0.0067
 1059SOL     OW13315   0.192   7.114   2.723  0.7016  0.2086 -0.0842
 1059SOL    HW113316   0.169   7.049   2.795 -0.1957  1.1836  0.5326
 1059SOL    HW213317   0.220   7.065   2.641  1.7853 -0.9191  0.9431
 1061SOL     OW13318   0.946   8.521   3.746 -0.2987  0.2625 -0.2258
 1061SOL    HW113319   1.008   8.443   3.745 -0.4515  0.1306  0.8160
 1061SOL    HW213320   0.994   8.602   3.710 -0.1134 -0.2781 -1.2050
 1062SOL     OW13321   3.544   5.224   1.168  0.1441  0.3647 -0.8075
 1062SOL    HW113322   3.505   5.139   1.132 -0.7974  0.2759  0.3751
 1062SOL    HW213323   3.481   5.299   1.151  0.8975  0.8004 -1.6940
 1063SOL     OW13324   0.707   2.182   1.740 -0.2881  0.1985  0.4308
 1063SOL    HW113325   0.663   2.251   1.683 -1.0160 -0.4146  0.2497
 1063SOL    HW213326   0.724   2.219   1.831  0.7845  1.1474 -0.1422
 1064SOL     OW13327   9.618   7.703   2.851  0.1395 -0.5255 -0.3132
 1064SOL    HW113328   9.669   7.626   2.814 -0.1210 -0.0805 -1.6182
 1064SOL    HW213329   9.680   7.778   2.872  0.0702 -0.1140 -1.5651
 1066SOL     OW13330   2.900   8.252   0.890 -0.0906 -0.1880  0.3694
 1066SOL    HW113331   2.840   8.281   0.965 -1.4539 -1.4404 -0.2112
 1066SOL    HW213332   2.994   8.244   0.924 -0.1269  2.2649  1.1674
 1067SOL     OW13333   9.601   0.976   1.887 -0.0544 -0.4333  0.5775
 1067SOL    HW113334   9.631   1.070   1.869 -0.7372 -0.6103 -1.6272
 1067SOL    HW213335   9.503   0.968   1.870  0.0398 -1.6185  0.5263
 1069SOL     OW13336   5.250   1.023   0.777  0.5837  0.0779 -0.2260
 1069SOL    HW113337   5.292   1.064   0.696 -2.9859 -0.8719 -2.6596
 1069SOL    HW213338   5.182   1.086   0.815  0.6408 -0.4141  0.7175
 1070SOL     OW13339   9.489   2.605   0.845 -0.6362 -0.5413  0.1663
 1070SOL    HW113340   9.492   2.507   0.863 -1.6624 -0.5491  0.3332
 1070SOL    HW213341   9.510   2.622   0.749  0.4822 -0.8442  0.3503
 1071SOL     OW13342   3.160   1.826   1.560 -1.4464  0.0282  0.3125
 1071SOL    HW113343   3.186   1.758   1.493 -1.4264  0.0890  0.2584
 1071SOL    HW213344   3.242   1.867   1.600 -1.4511  0.8899 -0.5380
 1072SOL     OW13345   7.454   9.192   0.703 -0.0802 -0.3437 -0.5223
 1072SOL    HW113346   7.451   9.291   0.715 -0.1605 -0.0795 -2.4654
 1072SOL    HW213347   7.369   9.152   0.737 -0.6293  0.4198 -0.9778
 1073SOL     OW13348   0.589   3.273   0.486  0.3281  0.1005  0.4221
 1073SOL    HW113349   0.636   3.361   0.493 -0.6216  0.6685 -0.1776
 1073SOL    HW213350   0.495   3.288   0.456  0.3780 -1.1909 -0.4246
 1074SOL     OW13351   7.977   3.995   2.415  0.9895  0.2323  0.0121
 1074SOL    HW113352   7.903   4.037   2.467 -0.0261 -0.2749 -0.9932
 1074SOL    HW213353   8.003   4.054   2.339  0.5736 -0.2600 -0.5239
 1075SOL     OW13354   0.015   9.466   2.726 -0.7492 -0.2097  0.1506
 1075SOL    HW113355  -0.074   9.447   2.768 -0.7890 -0.9354 -0.2682
 1075SOL    HW213356   0.005   9.470   2.627 -0.2804 -0.4490  0.0950
 1076SOL     OW13357   9.435   3.384   3.672 -0.0918 -0.2998 -0.1845
 1076SOL    HW113358   9.469   3.383   3.766  0.9965 -0.9063 -0.5740
 1076SOL    HW213359   9.406   3.292   3.647  2.8861 -0.9143 -1.5880
 1077SOL     OW13360   7.889   6.859   4.131 -0.0732 -0.4253 -0.1066
 1077SOL    HW113361   7.939   6.871   4.046 -0.0722 -1.6379 -0.2907
 1077SOL    HW213362   7.921   6.775   4.177 -1.8427 -1.1570 -0.1681
 1078SOL     OW13363   9.873   1.641   3.579  0.0083  0.5391  0.1010
 1078SOL    HW113364   9.829   1.728   3.558 -0.9545  0.6896  2.6191
 1078SOL    HW213365   9.940   1.654   3.652 -0.0162 -0.8014  0.3733
 1079SOL     OW13366   0.033   9.395   4.059 -0.4434  0.2093  0.1034
 1079SOL    HW113367  -0.040   9.462   4.072  0.3294  1.0414  0.1452
 1079SOL    HW213368   0.116   9.425   4.105 -0.2501 -1.0581  0.6121
 1080SOL     OW13369   0.193   8.595   2.800  0.7894 -0.4411  0.4225
 1080SOL    HW113370   0.259   8.583   2.874  1.5969  1.6274  0.0852
 1080SOL    HW213371   0.237   8.643   2.724 -1.5101  2.5724  0.8966
 1081SOL     OW13372   7.696   0.036   2.286 -0.0701 -0.1392  0.0208
 1081SOL    HW113373   7.626   0.103   2.262 -0.9879 -0.3694  2.0406
 1081SOL    HW213374   7.732   0.056   2.377  0.5948 -1.6114  0.0972
 1083SOL     OW13375   3.158   2.347   1.964  0.3313  0.0229  0.4399
 1083SOL    HW113376   3.175   2.366   1.867  1.0646 -0.2549  0.5113
 1083SOL    HW213377   3.139   2.432   2.012 -0.0852  0.1582  0.0430
 1084SOL     OW13378   2.327   9.368   0.899  0.1284 -0.1660  0.5402
 1084SOL    HW113379   2.320   9.465   0.875  0.1365 -0.6662 -1.5900
 1084SOL    HW213380   2.423   9.341   0.901  0.1513 -0.0356  1.5993
 1085SOL     OW13381   0.310   1.045   0.384  0.2780 -0.1233  0.4380
 1085SOL    HW113382   0.257   0.963   0.407 -1.2604  0.7947  0.1580
 1085SOL    HW213383   0.372   1.023   0.308  0.8284 -1.3828  1.2194
 1087SOL     OW13384   2.288   1.720   4.032  0.0257  0.3465 -0.6198
 1087SOL    HW113385   2.337   1.742   3.947  0.3762  1.0739 -0.2359
 1087SOL    HW213386   2.194   1.752   4.025 -0.4411 -1.1609 -1.4064
 1088SOL     OW13387   8.992   9.930   2.361  0.2547  0.9992  0.0326
 1088SOL    HW113388   9.088   9.954   2.374  0.4358  1.9916 -2.7317
 1088SOL    HW213389   8.984   9.863   2.287 -1.0554 -0.4757  1.4651
 1089SOL     OW13390   9.412   9.332   1.906 -0.4842 -0.1694 -0.4987
 1089SOL    HW113391   9.449   9.246   1.872  1.9646  0.3389  0.7670
 1089SOL    HW213392   9.483   9.402   1.905 -1.4562  0.9005  1.8034
 1090SOL     OW13393   2.992   2.209   3.148 -0.0341  0.1901  0.0748
 1090SOL    HW113394   2.970   2.262   3.065 -0.7727 -2.1981 -1.2897
 1090SOL    HW213395   3.074   2.154   3.132 -1.9792 -2.7124 -0.2135
 1091SOL     OW13396   9.153   2.942   0.060  0.1603  0.2986  0.3335
 1091SOL    HW113397   9.220   2.905   0.125 -0.8881 -0.7313  0.8436
 1091SOL    HW213398   9.111   2.867   0.008 -3.2280  0.5240  2.5742
 1092SOL     OW13399   7.216   6.862   4.121  0.1009 -0.9430 -0.5400
 1092SOL    HW113400   7.128   6.863   4.168  0.6043  2.1229  0.4637
 1092SOL    HW213401   7.202   6.879   4.023 -0.4298 -0.3988 -0.3717
 1093SOL     OW13402   9.038   9.868   3.594 -0.4214 -0.1062  0.2535
 1093SOL    HW113403   8.952   9.852   3.642 -0.7987  1.4559  0.1330
 1093SOL    HW213404   9.074   9.959   3.618  1.1516 -0.7009  0.2433
 1094SOL     OW13405   0.192   3.087   1.975 -0.4619 -0.4382 -0.0714
 1094SOL    HW113406   0.156   3.176   2.000 -0.2890 -0.0638 -1.1415
 1094SOL    HW213407   0.119   3.019   1.980  0.0126 -0.7965  3.4740
 1095SOL     OW13408   8.273   8.218   2.052  0.4325 -0.4645 -0.4124
 1095SOL    HW113409   8.318   8.242   2.138 -2.5625  0.0146  1.0772
 1095SOL    HW213410   8.281   8.294   1.988  2.1258 -0.5703 -0.3317
 1096SOL     OW13411   0.528   9.611   2.389  0.1113 -0.0968  0.2268
 1096SOL    HW113412   0.614   9.576   2.426  0.2558  0.2826  0.2429
 1096SOL    HW213413   0.479   9.536   2.345 -0.5565 -0.7767  2.0943
 1097SOL     OW13414   9.585   6.697   4.319  0.3201 -0.4684  0.0889
 1097SOL    HW113415   9.632   6.748   4.391 -2.9561  0.9557  1.3267
 1097SOL    HW213416   9.601   6.742   4.231 -1.4325  1.9896  0.9787
 1098SOL     OW13417   3.560   2.030   4.183  0.3015  0.5586  0.2137
 1098SOL    HW113418   3.468   2.053   4.149  0.0112 -0.8437  0.0312
 1098SOL    HW213419   3.556   2.015   4.281  0.3914  0.7814  0.2516
 1099SOL     OW13420   0.604   5.157   1.807  0.0172  0.1607 -0.5865
 1099SOL    HW113421   0.622   5.244   1.853  0.7992  0.8157 -2.0978
 1099SOL    HW213422   0.602   5.084   1.874  1.1687  1.0973  0.4943
 1100SOL     OW13423   7.726   8.674   3.277  0.5120 -0.2706  0.0143
 1100SOL    HW113424   7.763   8.585   3.249  0.9657 -0.1929  0.3583
 1100SOL    HW213425   7.784   8.713   3.349  1.1304  0.9409 -1.1024
 1101SOL     OW13426   4.591   1.699   0.803 -0.0033 -0.2449  0.6004
 1101SOL    HW113427   4.510   1.757   0.807 -1.6276 -2.3620 -0.4339
 1101SOL    HW213428   4.567   1.606   0.832  2.0397 -0.9046  0.2764
 1102SOL     OW13429   1.840   3.336   3.026 -0.3963  0.1714 -0.1110
 1102SOL    HW113430   1.798   3.260   2.977  2.6610 -0.1745 -2.3538
 1102SOL    HW213431   1.898   3.301   3.100  1.4735  0.2035 -1.5087
 1104SOL     OW13432   5.981   8.360   2.049 -0.0224 -0.3386 -0.6765
 1104SOL    HW113433   5.970   8.409   2.136 -1.2958 -0.7619 -0.5947
 1104SOL    HW213434   6.008   8.266   2.067 -0.5748 -0.5089 -0.7199
 1106SOL     OW13435   4.457   7.484   3.096 -0.5388 -0.0578 -0.2005
 1106SOL    HW113436   4.410   7.432   3.168  0.8206 -0.6026  0.3135
 1106SOL    HW213437   4.535   7.532   3.135  0.3108 -0.4893 -1.3387
 1107SOL     OW13438   0.704   3.024   3.119 -0.0254 -0.2164 -0.3821
 1107SOL    HW113439   0.647   3.058   3.193  0.4139 -0.5736  0.1241
 1107SOL    HW213440   0.779   3.089   3.102 -0.6485  0.3156 -1.1326
 1108SOL     OW13441   1.736   1.672   0.853 -0.7054 -0.0280  0.0381
 1108SOL    HW113442   1.826   1.657   0.895 -1.6600 -0.1638  2.0594
 1108SOL    HW213443   1.693   1.583   0.835 -0.6831  0.0517 -0.4205
 1110SOL     OW13444   8.747   1.095   4.420  0.5453  0.0485  0.0314
 1110SOL    HW113445   8.679   1.119   4.490 -0.6338  0.5204 -1.2465
 1110SOL    HW213446   8.835   1.078   4.463 -0.0709  0.7406  1.5843
 1113SOL     OW13447   4.517   9.250   1.289 -0.3214 -0.1737 -0.0403
 1113SOL    HW113448   4.507   9.151   1.302  0.4510 -0.0401  1.7728
 1113SOL    HW213449   4.613   9.275   1.301 -0.5218  0.8104 -0.4494
 1114SOL     OW13450   2.261   7.607   0.389  0.0591  0.1346  0.7374
 1114SOL    HW113451   2.280   7.534   0.324 -1.0968  0.4705  0.0090
 1114SOL    HW213452   2.238   7.567   0.478 -0.7555 -0.4085  0.2934
 1115SOL     OW13453   9.406   3.138   2.509 -0.0691 -0.1831  0.2478
 1115SOL    HW113454   9.404   3.169   2.604 -0.1807  0.4337  0.0470
 1115SOL    HW213455   9.343   3.194   2.455 -0.3706 -0.8544 -0.0887
 1116SOL     OW13456   1.847   8.801   0.119 -0.4025  0.0068 -0.8910
 1116SOL    HW113457   1.774   8.819   0.185  0.5105  0.9489 -0.1246
 1116SOL    HW213458   1.880   8.707   0.130 -0.1659  0.2055  0.0763
 1117SOL     OW13459   5.963   0.133   1.240 -0.1815 -0.0079  0.0164
 1117SOL    HW113460   5.892   0.200   1.263 -1.2405 -1.4853  1.1908
 1117SOL    HW213461   6.036   0.137   1.308  0.4233  0.8782 -0.6766
 1119SOL     OW13462   4.772   2.858   2.532 -0.0645  0.5454 -0.5136
 1119SOL    HW113463   4.740   2.948   2.561  2.4622  0.7960  1.7241
 1119SOL    HW213464   4.839   2.868   2.459  1.1661  0.6006  0.6023
 1120SOL     OW13465   2.194   7.306   2.130 -0.1710  0.0490  0.2386
 1120SOL    HW113466   2.234   7.338   2.216 -0.9541 -0.1839  0.6925
 1120SOL    HW213467   2.095   7.297   2.140 -0.4370  1.3009 -1.0894
 1121SOL     OW13468   8.984   2.922   3.212  0.5178 -0.3271 -0.1704
 1121SOL    HW113469   8.919   2.846   3.204  0.8575 -0.5633 -0.7836
 1121SOL    HW213470   8.938   3.008   3.192  0.5530 -0.5692 -1.3444
 1122SOL     OW13471   9.527   8.827   2.088 -0.3507 -0.7017 -0.4444
 1122SOL    HW113472   9.540   8.735   2.126 -0.1461 -1.4642 -2.3069
 1122SOL    HW213473   9.616   8.867   2.067 -0.5475 -1.2636 -2.3757
 1123SOL     OW13474   2.721   5.831   1.088  0.6432  0.2113  0.6719
 1123SOL    HW113475   2.658   5.906   1.108 -0.5658 -0.8298  0.8236
 1123SOL    HW213476   2.670   5.755   1.047  1.8791 -0.4589  0.3700
 1124SOL     OW13477   3.081   6.749   4.305 -0.7765 -0.0061 -0.0011
 1124SOL    HW113478   2.996   6.742   4.253  0.1237 -1.3725 -1.3521
 1124SOL    HW213479   3.112   6.844   4.307 -1.4778  0.2469 -0.9295
 1125SOL     OW13480   8.525   0.563   0.785  0.3518 -0.1936  0.2763
 1125SOL    HW113481   8.508   0.661   0.791  1.5146 -0.0569  1.3904
 1125SOL    HW213482   8.470   0.525   0.711 -0.2134  1.2704 -0.0773
 1126SOL     OW13483   2.510   4.182   3.374  0.6207  0.2520  0.0660
 1126SOL    HW113484   2.415   4.174   3.343  0.4764 -0.1163  0.5933
 1126SOL    HW213485   2.571   4.188   3.294  0.0414  1.9155 -0.2673
 1127SOL     OW13486   7.903   8.368   4.236  0.0908  0.4057  0.4693
 1127SOL    HW113487   7.825   8.376   4.298 -1.6519 -0.2180 -1.5649
 1127SOL    HW213488   7.963   8.447   4.247 -0.4903  0.5753  2.5284
 1129SOL     OW13489   9.039   5.282   1.384  0.2983 -0.3968  0.0519
 1129SOL    HW113490   9.024   5.185   1.401  0.5280 -0.3737  0.3996
 1129SOL    HW213491   8.959   5.334   1.414  0.6726 -0.3626  1.0436
 1130SOL     OW13492   4.422   6.431   2.252 -0.2112 -0.2149  0.2214
 1130SOL    HW113493   4.336   6.471   2.284 -1.7381 -2.8118 -0.4943
 1130SOL    HW213494   4.440   6.461   2.158  0.3299  1.3150  0.7978
 1131SOL     OW13495   4.309   4.299   0.813  0.3579  0.3264 -0.2374
 1131SOL    HW113496   4.396   4.348   0.813 -1.0227  2.8781 -0.1255
 1131SOL    HW213497   4.287   4.269   0.720 -0.1416  2.4797 -0.8355
 1132SOL     OW13498   1.815   5.017   0.086 -0.1602 -0.6632 -0.2625
 1132SOL    HW113499   1.880   5.091   0.103 -0.0956 -0.9259  0.6835
 1132SOL    HW213500   1.817   4.953   0.163 -2.2105 -0.1612  0.2558
 1133SOL     OW13501   1.177   1.721   3.727  0.9163  0.4260  0.0394
 1133SOL    HW113502   1.265   1.725   3.681  0.1256 -1.7727 -1.7996
 1133SOL    HW213503   1.189   1.683   3.819  2.1414  2.2118  0.6393
 1134SOL     OW13504   3.912   6.211   2.467 -0.2056  0.2792  0.4518
 1134SOL    HW113505   3.877   6.191   2.559 -1.9576  2.7781  0.4031
 1134SOL    HW213506   4.004   6.250   2.475  0.2277 -0.8208  1.0215
 1135SOL     OW13507   1.772   8.892   1.968  0.4047 -0.1368  0.6120
 1135SOL    HW113508   1.723   8.875   1.882  2.1762  1.2119 -0.7086
 1135SOL    HW213509   1.714   8.943   2.030 -0.2569  0.4901 -0.5047
 1136SOL     OW13510   9.236   3.282   2.343 -1.3524  0.2204 -0.0818
 1136SOL    HW113511   9.261   3.262   2.248 -2.0157  0.8343 -0.3893
 1136SOL    HW213512   9.187   3.369   2.347 -0.6526  0.5723  0.9292
 1137SOL     OW13513   9.632   3.281   3.076 -0.2940  0.8673 -0.2778
 1137SOL    HW113514   9.641   3.194   3.123 -2.1446 -0.2457 -1.9158
 1137SOL    HW213515   9.713   3.296   3.019 -0.4068 -0.2615 -0.7473
 1138SOL     OW13516   3.867   1.900   0.721 -0.1422  0.0196  0.1557
 1138SOL    HW113517   3.867   1.913   0.820 -0.1140 -2.4656  0.5260
 1138SOL    HW213518   3.815   1.974   0.677  1.3821  2.1491  1.8474
 1139SOL     OW13519   3.096   0.347   2.336  0.5576 -0.6348  0.4300
 1139SOL    HW113520   3.136   0.414   2.273  1.3950  0.2118  1.8417
 1139SOL    HW213521   2.998   0.340   2.319  0.8589 -0.8174 -1.3291
 1140SOL     OW13522   4.570   0.942   2.345 -0.1084  0.2783  0.5235
 1140SOL    HW113523   4.629   1.007   2.392 -1.0855  1.0872  0.6371
 1140SOL    HW213524   4.605   0.925   2.253 -0.0230  1.1872  0.3908
 1141SOL     OW13525   2.423   3.051   2.943  0.3440 -0.4162  0.0477
 1141SOL    HW113526   2.500   3.045   2.880 -0.0044 -0.4547 -0.3819
 1141SOL    HW213527   2.455   3.041   3.037  0.8159 -0.7722 -0.1496
 1142SOL     OW13528   3.632   9.756   0.077 -1.0769 -0.7438  0.1657
 1142SOL    HW113529   3.606   9.823   0.008  1.8581  0.1905 -0.0893
 1142SOL    HW213530   3.585   9.776   0.163 -0.7590  1.2220 -0.1040
 1143SOL     OW13531   4.510   6.639   4.115 -0.5535 -0.0554  0.0410
 1143SOL    HW113532   4.441   6.700   4.076 -0.6215 -0.4438 -0.4493
 1143SOL    HW213533   4.467   6.555   4.147 -0.3169 -0.2957 -0.2576
 1144SOL     OW13534   0.101   8.443   2.009  0.1680 -0.5303 -0.4509
 1144SOL    HW113535   0.014   8.440   2.058  0.6911  2.2648  0.7421
 1144SOL    HW213536   0.084   8.447   1.911 -1.0931  0.6914 -0.1992
 1145SOL     OW13537   1.310   5.573   3.150  0.3615  0.1652  0.3478
 1145SOL    HW113538   1.321   5.508   3.225  1.4702 -0.9186 -0.7227
 1145SOL    HW213539   1.368   5.545   3.073  1.1453  2.6552  0.0125
 1146SOL     OW13540   9.891   4.114   0.361  0.1451 -0.0111 -0.2520
 1146SOL    HW113541   9.808   4.168   0.348  1.3302  1.4250 -2.2821
 1146SOL    HW213542   9.966   4.174   0.388  1.3255 -0.7259 -1.8587
 1147SOL     OW13543   0.739   5.411   0.905 -0.6213 -0.1663  0.8054
 1147SOL    HW113544   0.802   5.335   0.924 -1.1222 -0.6896  0.4285
 1147SOL    HW213545   0.703   5.446   0.991  0.6506  0.5427  1.0567
 1148SOL     OW13546   5.365   4.156   0.265  0.1038 -0.2386 -0.0399
 1148SOL    HW113547   5.438   4.218   0.294 -0.6919  0.5669  0.3009
 1148SOL    HW213548   5.276   4.199   0.285 -0.4903 -2.2866  1.9889
 1150SOL     OW13549   9.314   8.989   0.252  0.4177  0.6181  0.0905
 1150SOL    HW113550   9.270   8.900   0.263  0.3458  0.4236 -1.7441
 1150SOL    HW213551   9.245   9.059   0.233  0.5196  1.0027  1.0900
 1151SOL     OW13552   4.694   9.289   4.055 -0.1221 -0.1899 -0.4463
 1151SOL    HW113553   4.706   9.343   4.138 -0.7512 -0.8128  0.0528
 1151SOL    HW213554   4.695   9.349   3.975  0.3012  0.4305  0.0241
 1152SOL     OW13555   2.816   3.238   1.101 -0.5457 -0.1043 -0.2304
 1152SOL    HW113556   2.753   3.315   1.094 -0.6617  0.0173  1.7573
 1152SOL    HW213557   2.832   3.216   1.197  1.4369 -0.9735 -0.7149
 1153SOL     OW13558   8.021   6.524   2.449 -0.3105  0.0904  0.1230
 1153SOL    HW113559   7.979   6.581   2.378  0.3110  0.0291 -0.3067
 1153SOL    HW213560   8.057   6.582   2.522 -0.5835  0.1817  0.1833
 1154SOL     OW13561   7.335   0.219   1.507 -0.6117  0.7054 -0.3189
 1154SOL    HW113562   7.317   0.182   1.416 -0.7504 -0.3183  0.1222
 1154SOL    HW213563   7.275   0.175   1.574  0.0878  0.8301  0.3990
 1156SOL     OW13564   4.936   3.183   2.615  0.6233  0.1324 -0.4110
 1156SOL    HW113565   4.856   3.130   2.642  0.1225  0.8170 -0.5395
 1156SOL    HW213566   5.008   3.121   2.583  0.4425 -0.5383  0.4549
 1159SOL     OW13567   9.884   1.384   3.745  0.3510 -0.4076  0.0144
 1159SOL    HW113568   9.870   1.461   3.684 -1.2156  0.1775  1.1063
 1159SOL    HW213569   9.969   1.396   3.795  0.4590  0.2485 -0.3274
 1160SOL     OW13570   3.750   7.161   3.875  0.6072 -0.6568 -0.1353
 1160SOL    HW113571   3.742   7.120   3.966 -1.6826 -1.9891 -0.9138
 1160SOL    HW213572   3.693   7.243   3.869  0.2559 -0.9345 -0.5876
 1162SOL     OW13573   8.704   4.145   0.619 -0.3869  0.4082  0.8179
 1162SOL    HW113574   8.717   4.230   0.566  0.0611 -0.0287  0.2101
 1162SOL    HW213575   8.737   4.159   0.712  1.7370  0.2608  0.1311
 1163SOL     OW13576   0.612   8.325   0.426 -0.0528 -0.0243  0.2391
 1163SOL    HW113577   0.585   8.345   0.520 -0.2742  2.2652 -0.2783
 1163SOL    HW213578   0.698   8.370   0.405 -0.6923  0.6195 -1.0732
 1164SOL     OW13579   9.429   7.641   3.025  0.2104  0.6007  0.4098
 1164SOL    HW113580   9.509   7.668   2.971 -0.4512  1.2999 -0.2240
 1164SOL    HW213581   9.394   7.720   3.075 -1.5779  0.9042 -1.2570
 1165SOL     OW13582   7.574   1.020   2.129  0.0527 -0.4514 -0.2430
 1165SOL    HW113583   7.579   1.115   2.159 -1.3530 -0.4643  0.0533
 1165SOL    HW213584   7.627   0.962   2.191  1.2798  0.1931 -0.6789
 1166SOL     OW13585   2.227   1.469   3.774  0.3197  0.3778 -0.7521
 1166SOL    HW113586   2.309   1.525   3.769  0.9935 -0.4789  0.6998
 1166SOL    HW213587   2.244   1.388   3.831 -1.1634 -0.4147 -1.3940
 1167SOL     OW13588   9.202   3.488   3.957 -0.4643 -0.1439 -0.0440
 1167SOL    HW113589   9.142   3.566   3.941 -0.6914 -0.3419 -0.1643
 1167SOL    HW213590   9.148   3.405   3.964 -0.1535 -0.4134 -0.7845
 1168SOL     OW13591   2.625   9.476   1.240  0.0998  0.2677 -0.3778
 1168SOL    HW113592   2.622   9.571   1.209 -0.5625  0.3268 -0.1459
 1168SOL    HW213593   2.720   9.444   1.241  0.5438  1.5971  1.5764
 1170SOL     OW13594   7.778   0.991   0.305  0.1465  0.1164 -0.5471
 1170SOL    HW113595   7.699   0.932   0.291  0.3361 -0.2433 -0.1334
 1170SOL    HW213596   7.756   1.084   0.278 -0.6571  0.1714  0.2628
 1171SOL     OW13597   2.715   0.769   2.496 -0.4339  0.6238  0.4384
 1171SOL    HW113598   2.655   0.700   2.536 -1.2070  1.5423  0.8908
 1171SOL    HW213599   2.760   0.820   2.570  1.9189 -0.9118  0.1156
 1172SOL     OW13600   1.140   2.903   3.296 -0.0760 -1.0140  0.2591
 1172SOL    HW113601   1.056   2.921   3.245  0.5697 -1.1016 -0.8585
 1172SOL    HW213602   1.162   2.983   3.352  0.7465  0.2666 -1.8159
 1173SOL     OW13603   8.544   5.878   1.183  0.2715  0.2410 -0.0758
 1173SOL    HW113604   8.467   5.820   1.156  0.6719 -0.6052  0.5791
 1173SOL    HW213605   8.509   5.966   1.216 -0.3763  0.1055 -0.3856
 1174SOL     OW13606   7.496   2.577   3.174  0.2293 -0.4568 -0.0023
 1174SOL    HW113607   7.410   2.547   3.134  1.3723 -0.7576 -2.3134
 1174SOL    HW213608   7.562   2.501   3.174  0.9442  0.1502  0.4353
 1175SOL     OW13609   2.868   5.660   3.337 -0.3268  0.0761 -0.0807
 1175SOL    HW113610   2.873   5.574   3.388 -0.3661 -0.7497 -1.4624
 1175SOL    HW213611   2.957   5.707   3.342 -0.6755  0.5748  1.7240
 1176SOL     OW13612   5.749   8.092   2.972  0.0736 -0.4082  0.0242
 1176SOL    HW113613   5.835   8.111   2.924  0.6817 -0.9659  0.8764
 1176SOL    HW213614   5.708   8.008   2.937 -0.4423  0.1808 -0.8044
 1180SOL     OW13615   4.885   2.034   1.899  0.2096  0.1497  0.4877
 1180SOL    HW113616   4.878   2.064   1.994  1.2672  0.0117  0.6180
 1180SOL    HW213617   4.931   1.945   1.895 -1.2217 -0.5878 -0.0366
 1181SOL     OW13618   0.275   9.622   0.248 -0.0499  0.4144  0.1187
 1181SOL    HW113619   0.346   9.604   0.180  0.1233 -1.0081  0.6566
 1181SOL    HW213620   0.194   9.660   0.203  0.8055  1.4152 -0.5847
 1182SOL     OW13621   7.758   9.995   2.646 -0.1331 -0.2028  0.1886
 1182SOL    HW113622   7.773   9.911   2.593  0.7084  0.8217 -1.2239
 1182SOL    HW213623   7.734   9.971   2.740  0.0616 -2.0263 -0.2037
 1184SOL     OW13624   6.230   0.194   4.100 -0.3308  0.2120 -0.1924
 1184SOL    HW113625   6.274   0.104   4.108 -0.7871  0.0573  0.7010
 1184SOL    HW213626   6.256   0.251   4.178 -0.0618  0.8467 -0.7450
 1185SOL     OW13627   4.777   5.541   1.215 -0.1316 -0.5855  0.1215
 1185SOL    HW113628   4.686   5.522   1.178 -0.3046 -0.4631  0.4746
 1185SOL    HW213629   4.847   5.510   1.151 -0.4086 -2.3065  0.6382
 1186SOL     OW13630   1.394   1.791   2.572  0.2038  0.0018  0.7855
 1186SOL    HW113631   1.446   1.736   2.637  0.5920 -0.1444  0.3507
 1186SOL    HW213632   1.455   1.852   2.522  0.2166 -1.3093 -0.8795
 1187SOL     OW13633   6.904   7.430   3.608 -0.5118 -0.2197 -0.3008
 1187SOL    HW113634   6.944   7.340   3.620 -1.8051 -0.8797 -0.7691
 1187SOL    HW213635   6.804   7.424   3.618 -0.5129  1.3830  0.9779
 1188SOL     OW13636   3.520   1.276   2.044  0.2680 -0.2265 -0.1722
 1188SOL    HW113637   3.579   1.328   1.983 -0.7240 -0.3371 -1.2351
 1188SOL    HW213638   3.466   1.338   2.101  0.9946 -0.1243  0.4174
 1189SOL     OW13639   9.297   9.704   0.287 -0.1299 -0.2002 -0.5797
 1189SOL    HW113640   9.322   9.796   0.316  0.2648 -0.4269 -0.1993
 1189SOL    HW213641   9.338   9.637   0.348  2.0656 -0.7573 -2.5966
 1190SOL     OW13642   1.339   3.228   1.878 -0.7687  0.0435  0.0900
 1190SOL    HW113643   1.332   3.316   1.831 -1.2896  0.1931  0.4572
 1190SOL    HW213644   1.410   3.233   1.948 -0.4225  0.0047 -0.2520
 1191SOL     OW13645   7.367   8.410   2.635  0.0396 -0.3918 -0.2871
 1191SOL    HW113646   7.359   8.509   2.645 -1.2754 -0.4962 -0.2930
 1191SOL    HW213647   7.429   8.375   2.705  0.6217  0.4493 -0.3709
 1192SOL     OW13648   9.482   2.631   1.733  0.0401 -0.5530 -0.1242
 1192SOL    HW113649   9.419   2.694   1.780  0.2941  0.5514 -1.2217
 1192SOL    HW213650   9.576   2.656   1.756  0.1809  0.2531 -1.5050
 1194SOL     OW13651   0.963   0.422   4.133 -0.1792  0.2998  0.1474
 1194SOL    HW113652   0.877   0.471   4.123 -0.8901 -1.1976 -1.1485
 1194SOL    HW213653   0.997   0.395   4.043 -0.4327 -2.7027  0.9247
 1196SOL     OW13654   7.301   9.223   3.474 -0.1995 -0.1721 -0.3650
 1196SOL    HW113655   7.231   9.219   3.546 -1.0169 -1.3866 -1.1948
 1196SOL    HW213656   7.390   9.243   3.515 -0.5604 -1.3609  1.0570
 1197SOL     OW13657   4.259   8.907   1.139 -0.1760 -0.5342 -0.0154
 1197SOL    HW113658   4.357   8.920   1.122 -0.1069 -0.9652  0.0533
 1197SOL    HW213659   4.234   8.812   1.120 -0.8577 -0.1041 -1.3917
 1200SOL     OW13660   9.898   0.275   1.413  0.0780  0.3701 -0.0554
 1200SOL    HW113661   9.880   0.335   1.491 -1.0596  1.6678 -1.2797
 1200SOL    HW213662   9.922   0.184   1.446 -0.2946  0.9165  1.8020
 1201SOL     OW13663   9.200   7.703   1.600 -0.2850 -0.1738 -0.2662
 1201SOL    HW113664   9.292   7.738   1.585 -0.3901  0.5494  0.7539
 1201SOL    HW213665   9.159   7.678   1.512  0.9071 -0.5841 -0.7157
 1203SOL     OW13666   3.960   7.119   3.423 -0.2625  0.4807  0.9894
 1203SOL    HW113667   3.893   7.149   3.355 -0.8710  2.1447  2.2893
 1203SOL    HW213668   3.933   7.030   3.458  1.4414 -1.6397 -2.7550
 1204SOL     OW13669   5.570   9.252   3.432 -0.2820 -0.7889 -0.3568
 1204SOL    HW113670   5.492   9.261   3.370 -0.4989  0.5618  0.1008
 1204SOL    HW213671   5.652   9.231   3.379 -0.4863  0.2434 -1.0853
 1205SOL     OW13672   1.630   4.799   2.230  0.1309  0.1672 -0.1790
 1205SOL    HW113673   1.539   4.828   2.258  0.4546  0.1668  0.9047
 1205SOL    HW213674   1.684   4.879   2.204  0.2294  0.2923  0.4118
 1206SOL     OW13675   1.084   3.216   4.159  0.0009  0.0215  0.3989
 1206SOL    HW113676   1.047   3.304   4.187 -0.6788 -0.8763  2.4316
 1206SOL    HW213677   1.070   3.203   4.061 -1.3420  1.4646  0.3910
 1207SOL     OW13678   7.351   7.988   3.934  0.4852 -0.6745 -0.2903
 1207SOL    HW113679   7.335   7.986   4.033 -2.6497 -1.7912 -0.7643
 1207SOL    HW213680   7.365   7.895   3.901  2.0220 -0.2593 -0.8701
 1208SOL     OW13681   3.452   7.506   4.109  0.5555 -0.1791 -0.2010
 1208SOL    HW113682   3.545   7.509   4.071  0.9073 -2.0357  0.4392
 1208SOL    HW213683   3.391   7.459   4.045  0.3693 -0.1939 -0.0133
 1211SOL     OW13684   2.003   4.366   1.788  0.3643 -0.6204  0.1011
 1211SOL    HW113685   2.021   4.453   1.742 -3.0365  1.6500  2.7368
 1211SOL    HW213686   2.055   4.362   1.873 -0.3742 -0.5989  0.5616
 1212SOL     OW13687   4.052   7.733   3.179 -0.2199  0.1039 -0.0266
 1212SOL    HW113688   4.071   7.734   3.278 -0.6334 -0.2432  0.0590
 1212SOL    HW213689   4.138   7.723   3.129  0.0615  1.0035  0.2746
 1213SOL     OW13690   1.723   7.529   2.928  0.6260 -0.3636  0.1312
 1213SOL    HW113691   1.803   7.523   2.869 -0.1269 -0.7968 -0.8610
 1213SOL    HW213692   1.750   7.563   3.018  1.7307  0.5854 -0.5525
 1214SOL     OW13693   4.558   5.910   1.855  0.3252 -0.0895  0.1525
 1214SOL    HW113694   4.657   5.915   1.849  0.2323  1.4630 -0.4176
 1214SOL    HW213695   4.532   5.880   1.947  1.2837  2.7520  1.3975
 1215SOL     OW13696   2.252   4.145   0.016 -0.3437  0.2532 -0.2616
 1215SOL    HW113697   2.292   4.074   0.076  0.0241  1.1716  0.6011
 1215SOL    HW213698   2.171   4.108  -0.030  1.3125 -1.5759 -1.8320
 1216SOL     OW13699   0.514   3.827   5.635  0.8335 -0.0886 -0.4823
 1216SOL    HW113700   0.562   3.744   5.604  0.4675 -0.3694 -0.3010
 1216SOL    HW213701   0.423   3.829   5.594  0.5305 -0.2082  0.1887
 1218SOL     OW13702   5.729   1.040   3.784  0.0984 -0.6263  0.1971
 1218SOL    HW113703   5.707   0.962   3.726 -1.8429  0.5612 -0.7085
 1218SOL    HW213704   5.644   1.086   3.811  1.2690  1.8313 -0.2281
 1219SOL     OW13705   3.428   0.492   2.983 -0.0984 -0.2087  0.3184
 1219SOL    HW113706   3.520   0.480   3.022 -0.1799 -2.6583 -0.1489
 1219SOL    HW213707   3.434   0.497   2.884 -0.3010  1.7268  0.3868
 1220SOL     OW13708   5.691   6.815   3.079  0.5862 -0.1264  0.1351
 1220SOL    HW113709   5.731   6.726   3.100  0.1440  0.6576  5.0121
 1220SOL    HW213710   5.761   6.886   3.090  0.1136  0.4262 -0.3738
 1221SOL     OW13711   3.410   5.821   1.746  0.3948  0.2547  0.1104
 1221SOL    HW113712   3.319   5.785   1.724  0.0416  0.5467  1.0826
 1221SOL    HW213713   3.471   5.746   1.770  0.3721  0.0739 -0.3827
 1222SOL     OW13714   6.983   7.510   3.187 -0.3515  0.7974  0.5357
 1222SOL    HW113715   6.906   7.467   3.141 -0.4293 -2.2172  3.3012
 1222SOL    HW213716   6.951   7.559   3.268  0.3151  2.1895 -0.0172
 1223SOL     OW13717   7.940   0.136   1.719 -0.2212 -0.0917 -0.4016
 1223SOL    HW113718   8.033   0.146   1.685 -0.4161 -1.2985 -1.3195
 1223SOL    HW213719   7.878   0.189   1.662 -0.2439 -0.2314 -0.5071
 1224SOL     OW13720   3.801   1.268   2.954 -0.0323 -0.1732 -0.6305
 1224SOL    HW113721   3.801   1.169   2.942  0.4439 -0.0723 -1.5024
 1224SOL    HW213722   3.895   1.302   2.955 -0.0864 -0.0249  2.3353
 1225SOL     OW13723   4.978   5.412   1.710 -0.0768  0.1044 -0.5968
 1225SOL    HW113724   4.902   5.456   1.663  0.1740 -0.1266 -1.2327
 1225SOL    HW213725   4.947   5.326   1.752 -0.3937  0.5153  0.0098
 1226SOL     OW13726   9.847   9.148   3.598  0.2909 -0.5720  0.0894
 1226SOL    HW113727   9.803   9.194   3.676  0.4901 -1.3834  0.6842
 1226SOL    HW213728   9.829   9.200   3.515  1.6679  1.3933  0.9422
 1227SOL     OW13729   6.877   8.659   3.576  0.0701 -0.1285 -0.1257
 1227SOL    HW113730   6.788   8.655   3.623  0.6969 -2.6914  0.9132
 1227SOL    HW213731   6.863   8.680   3.479 -1.6089  0.2486  0.1850
 1230SOL     OW13732   8.237   3.321   2.802  0.0846  0.0560  0.0514
 1230SOL    HW113733   8.223   3.413   2.763  0.3668  0.3095  0.5449
 1230SOL    HW213734   8.264   3.258   2.729  0.9915  0.6144 -0.0990
 1231SOL     OW13735   7.904   8.439   2.937 -0.3158  0.2196 -0.5447
 1231SOL    HW113736   7.825   8.485   2.895  0.4871  1.0471 -1.1889
 1231SOL    HW213737   7.952   8.386   2.868 -0.6737 -0.8006 -0.0092
 1232SOL     OW13738   9.191   9.276   2.083 -0.0945  0.5617  0.4776
 1232SOL    HW113739   9.251   9.251   2.159 -0.5485 -0.9746  0.3422
 1232SOL    HW213740   9.245   9.289   2.000  0.2301  0.7655  0.7241
 1233SOL     OW13741   6.455   9.479   3.865  0.2672  0.2861  0.1685
 1233SOL    HW113742   6.407   9.567   3.854  0.3080  0.0979 -1.6292
 1233SOL    HW213743   6.388   9.405   3.871  0.2807  0.2766  0.1888
 1234SOL     OW13744   9.416   4.664   0.855 -0.3793  0.0524  0.2938
 1234SOL    HW113745   9.384   4.577   0.816  0.1609 -0.3849  0.8143
 1234SOL    HW213746   9.514   4.673   0.839 -0.6096  1.0342 -0.6257
 1235SOL     OW13747   9.411   6.044   0.336  0.5905 -0.1740 -0.1199
 1235SOL    HW113748   9.454   6.111   0.275 -1.7239  1.4306 -0.0587
 1235SOL    HW213749   9.409   6.080   0.429  0.1702 -0.7221  0.0880
 1236SOL     OW13750   0.373   7.686   3.958  0.2594  0.1981 -0.0688
 1236SOL    HW113751   0.351   7.719   4.050 -0.6599  2.5678 -1.0987
 1236SOL    HW213752   0.471   7.697   3.942  0.0786  1.8026 -0.1337
 1237SOL     OW13753   7.442   2.205   0.369 -0.1321 -0.2729  0.1067
 1237SOL    HW113754   7.404   2.225   0.278  1.5185 -1.6796 -0.9246
 1237SOL    HW213755   7.461   2.290   0.417 -2.4232  0.4726 -0.2695
 1238SOL     OW13756   5.792   7.429   3.427 -0.0851  0.8301 -0.2218
 1238SOL    HW113757   5.713   7.473   3.470 -1.3516 -1.2605 -0.3072
 1238SOL    HW213758   5.861   7.497   3.404 -1.2806  2.5242  1.1188
 1239SOL     OW13759   2.120   2.407   2.407 -0.0498 -0.3847  0.4166
 1239SOL    HW113760   2.132   2.506   2.393  0.8398  0.3314  5.1004
 1239SOL    HW213761   2.209   2.363   2.407 -0.3428 -0.9772 -0.3431
 1240SOL     OW13762   3.353   0.099   2.143  0.9099  0.2842  0.4542
 1240SOL    HW113763   3.344   0.143   2.233 -0.3216 -1.1359  1.0404
 1240SOL    HW213764   3.384   0.005   2.155 -1.3899 -0.6307 -0.4348
 1241SOL     OW13765   3.442   8.005   0.522 -0.2874  0.0357 -0.2716
 1241SOL    HW113766   3.517   8.070   0.536 -0.0076 -0.0070 -1.5242
 1241SOL    HW213767   3.443   7.973   0.427 -1.9500  0.0950 -0.3129
 1242SOL     OW13768   0.306   6.265   4.414 -0.2695 -0.1932  0.5116
 1242SOL    HW113769   0.389   6.241   4.364 -0.7934  0.9884 -0.9883
 1242SOL    HW213770   0.253   6.331   4.360 -1.6495 -0.1127  1.9283
 1243SOL     OW13771   3.078   8.320   1.227 -0.0241  0.2979  0.1320
 1243SOL    HW113772   3.013   8.395   1.228 -0.3802 -0.0068  0.5496
 1243SOL    HW213773   3.125   8.316   1.139 -0.8184  0.3129 -0.2972
 1244SOL     OW13774   3.352   5.547   1.886 -0.0875 -0.3154 -0.2969
 1244SOL    HW113775   3.446   5.575   1.864  0.1134 -0.8484 -0.1418
 1244SOL    HW213776   3.331   5.573   1.980 -0.1827  0.0182 -0.4084
 1245SOL     OW13777   1.269   6.701   0.444  0.3202 -0.1703 -0.4472
 1245SOL    HW113778   1.201   6.692   0.517  1.7452 -1.7826  0.7118
 1245SOL    HW213779   1.331   6.623   0.446  1.8493  0.9708 -1.8801
 1246SOL     OW13780   3.859   3.989   3.389  0.0576 -0.0713  0.0113
 1246SOL    HW113781   3.779   3.983   3.330 -0.3273  0.8119  0.4313
 1246SOL    HW213782   3.927   3.922   3.360  0.3017  1.0310 -2.0676
 1247SOL     OW13783   0.831   7.489   2.358  0.4147  0.4529 -0.3053
 1247SOL    HW113784   0.842   7.529   2.266  0.4386  1.1586  0.0018
 1247SOL    HW213785   0.900   7.528   2.419 -0.0284  0.4808  0.1753
 1249SOL     OW13786   0.135   6.627   1.881 -0.2474  0.4368 -0.0517
 1249SOL    HW113787   0.115   6.612   1.784  0.3465  1.7670 -0.3984
 1249SOL    HW213788   0.063   6.587   1.937  0.6153 -2.4342 -0.9466
 1250SOL     OW13789   2.984   7.173   1.069  0.4667  0.0741 -0.4265
 1250SOL    HW113790   3.071   7.124   1.061  0.1828 -0.8112  1.4937
 1250SOL    HW213791   2.941   7.180   0.979  2.0117 -0.4465 -1.2203
 1252SOL     OW13792   7.100   1.695   3.005  0.3280 -0.0713 -0.0831
 1252SOL    HW113793   7.113   1.739   2.916 -0.5474  0.2650 -0.0445
 1252SOL    HW213794   7.185   1.699   3.057 -0.2082  3.2275  0.6593
 1253SOL     OW13795   1.982   1.516   3.947 -0.1893 -0.0926  0.3018
 1253SOL    HW113796   2.029   1.467   4.021 -0.0256  1.0198  0.9503
 1253SOL    HW213797   2.044   1.526   3.869  0.4955  0.9335  0.9703
 1254SOL     OW13798   0.153   6.054   4.203 -0.3049  0.3331  0.3752
 1254SOL    HW113799   0.197   6.110   4.133  0.6745 -0.5379  0.2779
 1254SOL    HW213800   0.091   6.111   4.257 -0.1114  1.2803 -0.3869
 1255SOL     OW13801   4.966   0.682   1.710 -0.3271 -0.0757 -0.1905
 1255SOL    HW113802   4.995   0.586   1.711 -0.4953 -0.1708 -1.9977
 1255SOL    HW213803   5.034   0.738   1.756  0.2944 -0.9423 -0.0375
 1256SOL     OW13804   2.960   6.156   4.068  0.3744 -0.2401 -0.2464
 1256SOL    HW113805   2.870   6.119   4.047  0.5632 -0.1367 -1.2740
 1256SOL    HW213806   2.964   6.182   4.164 -1.3432  1.5786 -0.6308
 1258SOL     OW13807   8.659   8.218   2.374 -0.2695 -0.5887  0.1551
 1258SOL    HW113808   8.692   8.179   2.460  0.8480 -2.2297 -0.9993
 1258SOL    HW213809   8.711   8.180   2.298  0.0270  2.2530 -1.1214
 1259SOL     OW13810   1.033   6.609   2.772 -0.8400  0.0951  0.1537
 1259SOL    HW113811   0.935   6.597   2.753 -0.6472 -2.2242  0.5282
 1259SOL    HW213812   1.086   6.540   2.723  0.5509  0.8593  0.5486
 1260SOL     OW13813   9.038   3.024   3.474 -0.3501 -0.4194  0.6920
 1260SOL    HW113814   9.019   3.121   3.464 -0.5806 -0.3904  1.3872
 1260SOL    HW213815   9.013   2.976   3.390  0.1943  0.1880  0.1866
 1261SOL     OW13816   7.523   0.895   1.911 -0.2621  0.1706  0.5999
 1261SOL    HW113817   7.549   0.939   1.998 -0.9444  0.0808  0.8523
 1261SOL    HW213818   7.437   0.934   1.879  0.3008  0.6556 -0.3743
 1263SOL     OW13819   5.371   6.632   3.536  0.1814  0.3467  0.1358
 1263SOL    HW113820   5.393   6.630   3.439 -0.0643 -0.3189  0.0955
 1263SOL    HW213821   5.398   6.721   3.574 -1.3605  1.2953 -0.9253
 1264SOL     OW13822   1.481   1.759   1.619  0.8639 -0.0658  0.1516
 1264SOL    HW113823   1.559   1.736   1.676  0.6785  1.4822  1.0674
 1264SOL    HW213824   1.408   1.798   1.675 -0.3494 -0.9434 -0.7779
 1265SOL     OW13825   3.937   8.919   3.173  0.4394  0.0683  0.0331
 1265SOL    HW113826   3.922   8.987   3.101 -0.2399 -0.5407 -0.4273
 1265SOL    HW213827   3.862   8.923   3.239  0.6353  0.0852  0.2512
 1267SOL     OW13828   1.653   9.781   2.273 -0.4563 -0.0515 -0.5462
 1267SOL    HW113829   1.575   9.744   2.324 -0.7839 -1.0111 -1.7356
 1267SOL    HW213830   1.624   9.808   2.182  0.8468 -1.5540 -1.4348
 1269SOL     OW13831   4.831   8.222   2.276 -0.1393  0.3572 -0.0064
 1269SOL    HW113832   4.811   8.270   2.190  0.2716 -0.7350 -0.7331
 1269SOL    HW213833   4.919   8.175   2.268  0.2391  0.8357  1.2757
 1270SOL     OW13834   0.895   4.008   1.882  0.2127  0.6518 -0.7014
 1270SOL    HW113835   0.871   4.045   1.972  0.1698  1.4633 -1.0418
 1270SOL    HW213836   0.866   3.912   1.876 -1.7129  1.1980 -0.6067
 1271SOL     OW13837   1.998   0.904   3.179 -0.1943  0.2929 -0.2532
 1271SOL    HW113838   1.932   0.866   3.244 -1.2890 -0.3037 -1.6716
 1271SOL    HW213839   2.012   1.001   3.198  0.9315 -0.2940  2.0201
 1272SOL     OW13840   2.126   7.668   2.276 -1.1591 -0.2905  0.0496
 1272SOL    HW113841   2.154   7.578   2.310 -1.6081  0.0934  1.4312
 1272SOL    HW213842   2.052   7.656   2.209 -1.0088 -0.9577 -0.0059
 1274SOL     OW13843   5.326   1.351   2.086 -0.0335  0.1563  0.1767
 1274SOL    HW113844   5.342   1.280   2.017  0.4760  1.1201 -0.7181
 1274SOL    HW213845   5.251   1.323   2.147  0.1525 -1.1278 -0.1793
 1276SOL     OW13846   8.152   1.667   2.794  0.0761 -1.2936  0.2340
 1276SOL    HW113847   8.159   1.708   2.704 -0.2945  1.1378  1.2677
 1276SOL    HW213848   8.243   1.650   2.831  0.2369 -0.9514 -0.0075
 1277SOL     OW13849   8.654   4.895   0.878  1.0447 -0.1729 -0.3153
 1277SOL    HW113850   8.612   4.829   0.816  2.1086 -1.4502  0.2959
 1277SOL    HW213851   8.659   4.984   0.834 -1.3578 -0.2320 -0.7847
 1278SOL     OW13852   1.500   3.774   1.640  0.3116  0.1611  0.0627
 1278SOL    HW113853   1.418   3.753   1.694  0.3857  1.0913  0.5704
 1278SOL    HW213854   1.536   3.863   1.669  2.4747 -0.9829  1.0312
 1279SOL     OW13855   7.526   0.500   3.466  0.1764 -0.0122  0.9686
 1279SOL    HW113856   7.608   0.454   3.499 -0.0280 -1.8386 -0.9893
 1279SOL    HW213857   7.447   0.469   3.519  0.1876 -1.1868  0.3109
 1281SOL     OW13858   4.588   8.491   1.582  0.0953  0.3110 -0.2992
 1281SOL    HW113859   4.493   8.460   1.588  0.7761 -2.2731 -2.2075
 1281SOL    HW213860   4.615   8.497   1.487  2.8845 -2.3273  0.2794
 1283SOL     OW13861   4.556   7.755   1.459 -0.2343  0.3294  0.1296
 1283SOL    HW113862   4.535   7.849   1.432  0.4242  0.6341  0.6776
 1283SOL    HW213863   4.522   7.738   1.551 -1.1881 -0.2653 -0.3256
 1284SOL     OW13864   9.984   2.148   1.849  0.6523  0.2462 -0.1276
 1284SOL    HW113865  10.049   2.106   1.786  1.5809  0.2875  0.7868
 1284SOL    HW213866   9.973   2.244   1.826  1.0897  0.2937 -0.1393
 1285SOL     OW13867   9.273   8.151   1.697 -0.1181 -0.4092  0.2005
 1285SOL    HW113868   9.369   8.127   1.684  0.3680  0.9042  1.2262
 1285SOL    HW213869   9.230   8.166   1.609 -0.3586 -4.5610 -0.4955
 1286SOL     OW13870   9.471   7.203   1.164  0.3155  0.3532 -0.5611
 1286SOL    HW113871   9.470   7.173   1.259  0.4502  0.3230 -0.5702
 1286SOL    HW213872   9.377   7.220   1.134  0.3239  0.9559 -0.2394
 1287SOL     OW13873   8.511   0.258   0.825 -0.1475  0.6091  0.1205
 1287SOL    HW113874   8.553   0.264   0.734 -1.2582  0.5763 -0.4046
 1287SOL    HW213875   8.577   0.286   0.894  0.0771  2.6003 -0.8675
 1288SOL     OW13876   4.735   7.878   2.904 -0.1950 -0.2450 -0.3875
 1288SOL    HW113877   4.752   7.870   3.002  1.3052 -0.5223 -0.6583
 1288SOL    HW213878   4.820   7.903   2.857 -0.8869 -0.1616 -1.6234
 1289SOL     OW13879   1.935   5.651   2.600 -0.6101 -0.4073  0.2650
 1289SOL    HW113880   1.994   5.725   2.570  1.0513 -2.0269 -0.5632
 1289SOL    HW213881   1.986   5.565   2.599 -2.8651 -1.7883 -0.0822
 1290SOL     OW13882   3.816   0.404   0.693  0.7747  0.1320 -0.1818
 1290SOL    HW113883   3.837   0.501   0.683  1.3810  0.0800  0.5311
 1290SOL    HW213884   3.720   0.388   0.672  0.7796  0.8155 -0.7393
 1291SOL     OW13885   9.394   9.178   0.920  0.4704  0.2672 -0.0399
 1291SOL    HW113886   9.409   9.254   0.984 -0.7233  0.4749 -0.0076
 1291SOL    HW213887   9.333   9.111   0.961 -0.2664  0.3754 -0.9354
 1292SOL     OW13888   9.900   1.807   4.268 -0.1668  0.5518 -0.0158
 1292SOL    HW113889   9.986   1.756   4.261  0.2227  1.1326  0.4903
 1292SOL    HW213890   9.882   1.853   4.181  1.6376  2.9534  0.8408
 1294SOL     OW13891   4.223   0.825   3.680  0.1474  0.2448  0.4277
 1294SOL    HW113892   4.175   0.850   3.596 -0.0125 -0.9645  0.1454
 1294SOL    HW213893   4.267   0.906   3.719 -0.8917  1.0743 -0.1009
 1295SOL     OW13894   3.523   0.542   3.429  0.5965  0.1598  0.0340
 1295SOL    HW113895   3.615   0.506   3.414  0.3445  0.3156 -2.0417
 1295SOL    HW213896   3.473   0.482   3.490  1.9044 -0.2122  0.7507
 1296SOL     OW13897   2.129   0.013   2.075 -0.4717  0.2245 -0.0014
 1296SOL    HW113898   2.177   0.099   2.092 -0.3069 -0.1489  1.5235
 1296SOL    HW213899   2.108  -0.031   2.162 -0.1075 -1.5240 -0.7667
 1297SOL     OW13900   4.114   1.206   0.773  0.1467 -0.0918  0.1722
 1297SOL    HW113901   4.063   1.270   0.717 -1.1147 -0.6090  0.7043
 1297SOL    HW213902   4.183   1.160   0.717  0.7101  1.3321 -0.3256
 1298SOL     OW13903   4.778   1.939   1.108  0.0368 -0.5877 -0.5208
 1298SOL    HW113904   4.686   1.910   1.135 -0.6149 -0.0660 -2.0910
 1298SOL    HW213905   4.806   2.019   1.161 -0.0499 -1.2758  0.5767
 1299SOL     OW13906   6.280   0.293   4.377 -0.6580 -0.6038  0.1366
 1299SOL    HW113907   6.269   0.386   4.411  2.6562 -0.0787 -0.0040
 1299SOL    HW213908   6.191   0.247   4.373 -2.3275  2.5242  0.2429
 1300SOL     OW13909   0.316   0.568   3.045 -0.0932 -0.0617  0.1022
 1300SOL    HW113910   0.386   0.625   3.087  0.5722 -1.7016  1.3073
 1300SOL    HW213911   0.225   0.599   3.073  0.3118 -0.5928  2.1384
 1301SOL     OW13912   8.479   2.473   1.131 -0.1124  0.6016  0.5406
 1301SOL    HW113913   8.381   2.467   1.152 -0.9156  2.4908 -2.4347
 1301SOL    HW213914   8.519   2.549   1.181 -0.0782 -0.2828  1.9032
 1302SOL     OW13915   9.618   2.730   2.236  0.4883  0.0796  0.5429
 1302SOL    HW113916   9.552   2.799   2.265  0.8363  1.0333 -0.8565
 1302SOL    HW213917   9.616   2.653   2.300 -0.7144  0.8715  1.4950
 1303SOL     OW13918   8.453   2.946   3.572  0.0384  0.0292  0.4065
 1303SOL    HW113919   8.434   3.019   3.638 -1.6223  1.2271 -1.3387
 1303SOL    HW213920   8.389   2.871   3.586  0.5318 -0.2889  0.9880
 1304SOL     OW13921   9.608   6.926   1.202  0.2702 -0.4991 -0.0380
 1304SOL    HW113922   9.661   6.847   1.233  0.8397  0.3897  1.2958
 1304SOL    HW213923   9.609   6.997   1.273 -0.9962  0.3476 -0.8427
 1305SOL     OW13924   3.392   5.845   3.953  0.2355 -0.0893  0.0531
 1305SOL    HW113925   3.372   5.827   3.857  1.2738  2.5748 -0.7221
 1305SOL    HW213926   3.350   5.932   3.980  0.3424 -0.5852  1.8754
 1306SOL     OW13927   2.061   3.841   3.954  0.1514 -0.6994  0.2198
 1306SOL    HW113928   2.055   3.898   4.037 -0.1099  1.5357 -1.2961
 1306SOL    HW213929   1.974   3.796   3.938  0.6180 -2.2661  1.9154
 1308SOL     OW13930   3.415   9.273   0.420 -0.5238  0.0203 -0.4595
 1308SOL    HW113931   3.420   9.355   0.362  1.7760 -0.4641 -0.9953
 1308SOL    HW213932   3.384   9.299   0.511 -0.2552  1.4074 -0.7517
 1309SOL     OW13933   2.186   3.842   2.775 -0.5126 -0.7094 -0.7464
 1309SOL    HW113934   2.180   3.939   2.752 -0.3458 -0.2348  1.1489
 1309SOL    HW213935   2.094   3.804   2.780 -0.6332 -0.3591 -0.2911
 1310SOL     OW13936   9.840   6.323   3.145  0.4362  0.5344 -0.2598
 1310SOL    HW113937   9.747   6.345   3.115  0.2842 -0.9441 -0.9582
 1310SOL    HW213938   9.906   6.360   3.080  0.1892 -0.9216 -1.3822
 1311SOL     OW13939   1.455   8.298   0.230  0.0112  0.5625  0.5130
 1311SOL    HW113940   1.515   8.219   0.217 -0.5526  0.1280  0.5280
 1311SOL    HW213941   1.406   8.289   0.317  0.3360  1.1908  0.7665
 1312SOL     OW13942   9.384   0.627   0.535 -0.1613 -0.4923  0.0465
 1312SOL    HW113943   9.397   0.534   0.502  0.8706 -0.0515 -0.8103
 1312SOL    HW213944   9.401   0.692   0.461 -3.5907  0.3030 -0.1315
 1313SOL     OW13945   2.184   8.213   0.866  0.3523  0.3666  0.7316
 1313SOL    HW113946   2.271   8.208   0.817  1.2578  0.1020  2.3361
 1313SOL    HW213947   2.199   8.251   0.957 -1.2784  0.6734  0.8854
 1314SOL     OW13948   8.047   2.478   2.890 -0.0615  0.2426  0.0260
 1314SOL    HW113949   7.994   2.525   2.820 -0.6016 -1.3921 -0.6982
 1314SOL    HW213950   8.098   2.403   2.849 -0.0012 -0.4395  1.2995
 1315SOL     OW13951   8.557   9.034   2.690 -0.3791  0.0345  0.5221
 1315SOL    HW113952   8.610   9.030   2.605 -1.3697  1.2645 -0.1698
 1315SOL    HW213953   8.531   9.129   2.709 -0.8124 -0.3311  1.7954
 1317SOL     OW13954   4.996   7.967   1.577  0.0017  0.4364  0.3914
 1317SOL    HW113955   4.912   7.932   1.536  0.8615  0.5929 -1.5574
 1317SOL    HW213956   5.046   7.892   1.620  0.3425 -0.2122 -1.1035
 1318SOL     OW13957   1.251   6.488   1.361 -0.2461 -0.0062 -0.4631
 1318SOL    HW113958   1.285   6.570   1.406  0.8343 -0.4556 -0.4341
 1318SOL    HW213959   1.228   6.508   1.266  2.8885 -0.3290 -1.3458
 1320SOL     OW13960   6.351   1.570   2.707 -0.4194  0.0598 -0.3117
 1320SOL    HW113961   6.362   1.666   2.731 -0.5763  0.1987 -0.7896
 1320SOL    HW213962   6.404   1.550   2.624 -0.2418 -0.3090 -0.1126
 1321SOL     OW13963   8.625   7.029   1.061  0.6066  0.3107 -0.0347
 1321SOL    HW113964   8.615   6.958   1.130 -0.6016  0.3925 -0.1171
 1321SOL    HW213965   8.706   7.084   1.081  0.1712  0.4490  1.4073
 1322SOL     OW13966   3.047   3.834   2.258  0.0958 -0.0301  0.2459
 1322SOL    HW113967   3.077   3.761   2.320  0.5434 -0.6533 -0.6950
 1322SOL    HW213968   3.044   3.799   2.165  2.6562  1.7727 -0.5842
 1323SOL     OW13969   3.747   0.185   2.278  0.0865 -0.6060 -0.3770
 1323SOL    HW113970   3.796   0.125   2.341  0.2438  0.0840  0.1615
 1323SOL    HW213971   3.656   0.206   2.315  1.4241  2.5693  1.3321
 1324SOL     OW13972   9.083   3.884   1.026 -0.2048  0.4526 -0.6429
 1324SOL    HW113973   9.078   3.795   0.982 -1.2086  0.6219 -0.8931
 1324SOL    HW213974   9.062   3.874   1.124  1.7141  0.1234 -0.2457
 1325SOL     OW13975   1.709   9.317   2.017 -0.2021 -0.1825 -0.5049
 1325SOL    HW113976   1.744   9.390   2.076  1.7167 -1.1799 -0.3722
 1325SOL    HW213977   1.784   9.277   1.965 -0.9779 -2.9896  0.4227
 1326SOL     OW13978   0.979   2.136   1.542 -0.2315 -0.8256  0.1901
 1326SOL    HW113979   1.003   2.229   1.513  1.5351 -1.4788 -0.4950
 1326SOL    HW213980   0.884   2.116   1.517 -0.7123  0.8838  0.6021
 1327SOL     OW13981   8.004   5.815   1.109 -0.2402 -0.7102 -0.0839
 1327SOL    HW113982   8.102   5.830   1.096 -0.1960 -1.3626 -0.5332
 1327SOL    HW213983   7.975   5.738   1.053 -0.8955 -0.9028  0.5188
 1330SOL     OW13984   7.029   8.298   1.316 -0.0434 -0.0395 -0.8391
 1330SOL    HW113985   7.125   8.290   1.292  0.2286  1.5315 -0.3337
 1330SOL    HW213986   6.994   8.386   1.283 -0.8463  0.1548  0.5027
 1331SOL     OW13987   4.508   0.289   2.742  0.1548  0.5375  0.2272
 1331SOL    HW113988   4.545   0.197   2.735  1.6525  0.8968  2.6461
 1331SOL    HW213989   4.424   0.296   2.689  0.9388 -1.7222 -1.3586
 1332SOL     OW13990   1.340   0.608   1.232  0.1127 -0.0915  0.1640
 1332SOL    HW113991   1.402   0.678   1.267 -0.5922  0.3721  0.5119
 1332SOL    HW213992   1.351   0.600   1.133 -0.1657  0.8953  0.0406
 1333SOL     OW13993   7.398   8.159   2.992 -0.5675  0.0685  0.1445
 1333SOL    HW113994   7.438   8.151   3.083 -0.3662 -1.2814 -0.0469
 1333SOL    HW213995   7.459   8.214   2.934  1.3080 -2.3549 -0.2705
 1334SOL     OW13996   5.922   6.614   1.961 -0.6647 -0.4502  0.6194
 1334SOL    HW113997   5.947   6.518   1.944 -0.4809 -0.0534 -1.6025
 1334SOL    HW213998   5.824   6.626   1.951 -0.4198  0.0083 -1.4493
 1335SOL     OW13999   8.361   9.208   3.788  0.2478  0.0823 -0.5140
 1335SOL    HW114000   8.413   9.226   3.704 -1.2364 -0.3260 -1.5346
 1335SOL    HW214001   8.331   9.112   3.788  0.2348  0.0854  0.4874
 1336SOL     OW14002   8.614   1.996   0.955 -0.3608 -0.0005  0.5578
 1336SOL    HW114003   8.610   2.095   0.975 -0.5698 -0.3380  2.2989
 1336SOL    HW214004   8.559   1.977   0.874  1.5057  1.6245 -1.1277
 1337SOL     OW14005   0.875   9.865   0.535  0.3047  0.2492  0.4754
 1337SOL    HW114006   0.811   9.807   0.586 -0.0208 -1.0773 -1.4041
 1337SOL    HW214007   0.967   9.855   0.574  0.1335 -1.0675  0.5653
 1339SOL     OW14008   4.342   6.181   2.589  0.2346 -0.0974  0.0654
 1339SOL    HW114009   4.358   6.084   2.605  0.3139  0.0823  1.1202
 1339SOL    HW214010   4.410   6.216   2.524  0.9533 -0.4835  0.6005
 1341SOL     OW14011   2.408   7.881   3.568 -0.3626 -0.6935  0.4618
 1341SOL    HW114012   2.399   7.807   3.502  0.0654  1.5744 -2.2277
 1341SOL    HW214013   2.504   7.890   3.596 -0.4286 -1.1923  0.8562
 1342SOL     OW14014   8.375   4.002   3.447  0.1814  0.1886  0.2890
 1342SOL    HW114015   8.434   3.922   3.434  0.3298  0.2832  0.3818
 1342SOL    HW214016   8.314   3.985   3.524 -0.8604 -0.4722 -0.6477
 1343SOL     OW14017   0.256   5.212   3.051  0.3713 -0.0234 -0.7708
 1343SOL    HW114018   0.270   5.113   3.059  1.2661  0.1929  0.5245
 1343SOL    HW214019   0.164   5.229   3.014 -0.3136 -1.3253  0.2622
 1345SOL     OW14020   2.955   9.810   3.324 -0.0761  0.3848 -0.7430
 1345SOL    HW114021   2.994   9.721   3.346 -0.4194  0.4025 -0.0343
 1345SOL    HW214022   2.908   9.804   3.235  2.6116  0.7184 -2.2371
 1347SOL     OW14023   3.207   3.604   2.353 -0.2441 -0.0275  0.3548
 1347SOL    HW114024   3.307   3.611   2.346 -0.0376 -1.3217  1.6499
 1347SOL    HW214025   3.174   3.532   2.292 -0.4000  0.5024 -0.1839
 1348SOL     OW14026   7.932   8.407   3.867  0.1796 -0.5380  0.2833
 1348SOL    HW114027   7.888   8.319   3.884 -0.3564 -0.2501  0.3971
 1348SOL    HW214028   7.999   8.425   3.938 -1.4098  0.2469  1.6253
 1349SOL     OW14029   2.401   9.916   3.352 -1.1400  1.0089 -0.4661
 1349SOL    HW114030   2.309   9.876   3.360  1.0177 -4.5343 -1.0239
 1349SOL    HW214031   2.456   9.887   3.431  1.3056  0.7235 -2.2346
 1350SOL     OW14032   8.404   6.655   2.590 -0.2092  0.0572  0.3101
 1350SOL    HW114033   8.427   6.703   2.675 -0.9274 -0.6995  0.9416
 1350SOL    HW214034   8.343   6.711   2.535  0.2673  0.5545  0.2860
 1351SOL     OW14035   2.088   8.758   3.572 -0.0251 -0.6836 -0.3427
 1351SOL    HW114036   2.122   8.729   3.482  0.0233 -2.3054  0.1867
 1351SOL    HW214037   2.093   8.858   3.578  0.2156 -0.5665 -2.0395
 1352SOL     OW14038   3.380   0.848   2.000 -0.0362 -0.3312 -0.0313
 1352SOL    HW114039   3.431   0.766   1.974  1.5458  1.4948 -2.9978
 1352SOL    HW214040   3.439   0.908   2.053 -0.9249 -0.7034  1.3971
 1354SOL     OW14041   3.044   0.683   0.809 -0.2999 -0.2293 -0.5816
 1354SOL    HW114042   2.978   0.666   0.737  0.1325  0.5974 -1.1799
 1354SOL    HW214043   3.124   0.729   0.771 -0.0569  0.1810  0.4163
 1356SOL     OW14044   4.412   9.550   2.934 -0.3635 -0.0903 -0.0976
 1356SOL    HW114045   4.502   9.516   2.962 -0.0217  1.1433  0.3335
 1356SOL    HW214046   4.416   9.583   2.839 -0.0507  1.0378  0.2968
 1357SOL     OW14047   9.279   1.139   0.878 -0.2931  0.0695  0.2944
 1357SOL    HW114048   9.339   1.067   0.911 -0.7915 -0.2056  0.6122
 1357SOL    HW214049   9.191   1.100   0.852 -0.6769  0.6013  0.7671
 1358SOL     OW14050   4.919   9.094   4.364  0.1747  0.7293  0.3570
 1358SOL    HW114051   4.957   9.186   4.349  0.7319  0.3719 -0.4534
 1358SOL    HW214052   4.820   9.100   4.378  0.1223  1.3946 -0.2857
 1361SOL     OW14053   8.742   9.299   2.731 -0.3718 -0.7478  0.3368
 1361SOL    HW114054   8.832   9.297   2.687 -0.6904 -0.3682 -0.3311
 1361SOL    HW214055   8.754   9.287   2.829  0.5833  1.5566  0.5216
 1362SOL     OW14056   7.307   9.629   2.747  0.0080  0.3728 -0.4504
 1362SOL    HW114057   7.362   9.704   2.710  0.3910 -0.2483 -1.1589
 1362SOL    HW214058   7.319   9.548   2.690  0.2107 -0.4654  0.7539
 1363SOL     OW14059   1.304   0.770   1.578 -0.5883 -0.3203 -0.5123
 1363SOL    HW114060   1.227   0.809   1.629  0.6915  1.5128  0.0976
 1363SOL    HW214061   1.328   0.682   1.617 -0.2414  0.6164  1.4738
 1364SOL     OW14062   2.363   0.228   0.822  0.4845 -0.0479 -0.3933
 1364SOL    HW114063   2.448   0.184   0.851 -0.0232 -0.5983  0.2832
 1364SOL    HW214064   2.367   0.249   0.724  2.3080  2.0088  0.0898
 1365SOL     OW14065   9.153   8.111   0.987  0.0812 -0.5539  0.0613
 1365SOL    HW114066   9.067   8.117   1.038 -1.0140  3.2918 -1.9799
 1365SOL    HW214067   9.224   8.163   1.035  0.4882 -1.3358  0.3057
 1366SOL     OW14068   4.384   1.621   0.024 -0.1225  0.0439  0.6547
 1366SOL    HW114069   4.358   1.618   0.120  1.1367  1.7494  1.0649
 1366SOL    HW214070   4.304   1.647  -0.031 -0.3954  0.8690  1.4377
 1367SOL     OW14071   2.914   6.588   1.412 -0.2790 -0.5541  0.2823
 1367SOL    HW114072   2.979   6.530   1.461  0.9158  1.5751  1.2560
 1367SOL    HW214073   2.831   6.599   1.467  0.3594  0.4219  1.0375
 1368SOL     OW14074   0.925   2.103   0.811 -0.3079  0.3113 -0.1438
 1368SOL    HW114075   1.002   2.065   0.760  0.7445  0.9412  0.9813
 1368SOL    HW214076   0.958   2.162   0.884 -1.8336  0.1616  0.6968
 1370SOL     OW14077   2.188   5.318   2.412 -0.0711 -0.0254  0.6358
 1370SOL    HW114078   2.157   5.227   2.386 -0.6098  0.4487 -0.4226
 1370SOL    HW214079   2.130   5.354   2.484 -0.4513 -0.1363  0.3831
 1371SOL     OW14080   2.354   9.048   3.256  0.3714  0.3966 -0.0163
 1371SOL    HW114081   2.367   9.136   3.211  1.1094  0.5409  0.4621
 1371SOL    HW214082   2.326   8.980   3.189  1.3942  0.6262 -0.6803
 1372SOL     OW14083   9.968   1.011   4.264 -0.3934 -0.2731  0.0309
 1372SOL    HW114084   9.910   1.090   4.243  0.1090  1.0392  3.3534
 1372SOL    HW214085   9.911   0.936   4.296 -0.5808 -0.0871  0.1389
 1373SOL     OW14086   5.567   1.372   4.238  0.1092  0.1083 -0.0981
 1373SOL    HW114087   5.615   1.319   4.169  0.9188  2.3884 -1.3180
 1373SOL    HW214088   5.575   1.469   4.218 -2.6389  0.6726  1.2540
 1374SOL     OW14089   3.026   8.096   4.277  0.0754  0.0964  0.2100
 1374SOL    HW114090   2.956   8.048   4.224 -0.2372  1.3990 -0.5864
 1374SOL    HW214091   3.023   8.066   4.372 -0.0136 -1.5545 -0.2950
 1375SOL     OW14092   7.416   2.443   0.676 -0.5950  0.5729  0.0066
 1375SOL    HW114093   7.470   2.461   0.594 -0.4730  3.1111  0.5854
 1375SOL    HW214094   7.323   2.476   0.662 -0.3440  1.8307  1.1771
 1376SOL     OW14095   0.320   4.798   3.223  0.3424 -0.1023  0.5008
 1376SOL    HW114096   0.411   4.760   3.242  0.1084 -0.7387  0.3673
 1376SOL    HW214097   0.321   4.843   3.133  0.6059  0.1645  0.6341
 1377SOL     OW14098   8.457   1.743   2.456  0.6461 -0.1129  0.7880
 1377SOL    HW114099   8.359   1.746   2.475  0.7334 -1.7801  1.6334
 1377SOL    HW214100   8.487   1.831   2.418 -1.2998  0.1864 -0.1304
 1378SOL     OW14101   0.358   0.293   1.537  0.3774  0.1609  0.1110
 1378SOL    HW114102   0.354   0.384   1.580 -0.1104  0.0749  0.2546
 1378SOL    HW214103   0.411   0.299   1.452  1.4121  0.3158  0.7570
 1379SOL     OW14104   4.116   0.052   0.708  0.3234  0.2181  0.2249
 1379SOL    HW114105   4.144   0.135   0.756 -1.7471 -0.2545  2.3383
 1379SOL    HW214106   4.178  -0.023   0.730  0.7483  0.5844  0.2774
 1380SOL     OW14107   3.626   1.675   3.917  0.1717  0.0961 -0.1410
 1380SOL    HW114108   3.631   1.643   3.822  1.4877 -0.6696  0.1834
 1380SOL    HW214109   3.649   1.772   3.920  0.4475  0.0465 -0.5582
 1381SOL     OW14110   1.917   8.546   0.662  0.2598  0.0177  0.2700
 1381SOL    HW114111   1.902   8.572   0.757  1.8649  0.2942  0.4660
 1381SOL    HW214112   1.923   8.628   0.605  3.5727  0.0884  0.6170
 1382SOL     OW14113   7.936   0.875   3.460 -0.0804 -0.2790 -0.3358
 1382SOL    HW114114   7.859   0.871   3.398 -0.6311 -1.8172  0.4257
 1382SOL    HW214115   7.905   0.903   3.551 -0.0634 -2.6817  0.4369
 1384SOL     OW14116   7.820   9.283   1.262 -0.3133  0.3771 -0.0398
 1384SOL    HW114117   7.900   9.318   1.309  0.5337  0.1588 -1.3011
 1384SOL    HW214118   7.826   9.183   1.257 -1.5300  0.2103  1.4043
 1385SOL     OW14119   1.260   2.140   3.049 -0.4402 -0.2624 -0.3137
 1385SOL    HW114120   1.187   2.177   3.106 -0.1660  0.7050 -0.5780
 1385SOL    HW214121   1.226   2.061   2.998 -1.7996  1.1888 -1.7144
 1386SOL     OW14122   1.986   6.085   1.132  0.0122 -0.3509  0.0737
 1386SOL    HW114123   1.931   6.090   1.215 -1.1684  0.3543 -0.7399
 1386SOL    HW214124   2.063   6.023   1.147 -1.5986 -2.2024  0.8904
 1387SOL     OW14125   2.614   1.697   0.705  0.4143  0.0470  0.0793
 1387SOL    HW114126   2.711   1.680   0.694  0.6997  0.8614  1.1970
 1387SOL    HW214127   2.570   1.704   0.615  1.5658  0.6974 -0.4312
 1388SOL     OW14128   2.581   9.987   1.993 -0.0464  0.0017  0.0622
 1388SOL    HW114129   2.679   9.983   2.011  0.2265  0.7990 -1.2016
 1388SOL    HW214130   2.552  10.083   1.987 -1.1622 -0.2002  1.7734
 1390SOL     OW14131   0.469   8.906   4.198 -0.0859 -0.1229 -0.5534
 1390SOL    HW114132   0.563   8.885   4.225 -0.2688 -1.2069 -0.7417
 1390SOL    HW214133   0.434   8.833   4.140 -1.0241  0.3116 -0.5403
 1392SOL     OW14134   2.834   0.203   1.236 -0.6544  0.2223 -0.3424
 1392SOL    HW114135   2.864   0.256   1.157 -2.3796  0.0081 -1.1693
 1392SOL    HW214136   2.821   0.107   1.209  2.0191 -0.5663  1.0356
 1393SOL     OW14137   3.572   8.025   1.831 -0.0346  0.5056 -0.3263
 1393SOL    HW114138   3.480   8.063   1.842  0.0469  0.7601 -0.5516
 1393SOL    HW214139   3.565   7.931   1.797 -0.2203  0.4153 -0.0458
 1395SOL     OW14140   4.379   0.599   3.689 -0.1295  0.0046  0.1262
 1395SOL    HW114141   4.387   0.570   3.593  1.4356  3.0983 -0.7681
 1395SOL    HW214142   4.306   0.667   3.696 -0.1035 -0.0719  1.0906
 1396SOL     OW14143   0.953   4.952   2.457  0.1609  0.5916  0.6289
 1396SOL    HW114144   0.891   4.894   2.510  1.5810  0.2123  1.9005
 1396SOL    HW214145   0.955   4.921   2.362  0.3370 -0.9671  1.1314
 1397SOL     OW14146   5.403   7.382   3.140  0.1190 -0.3021 -0.0899
 1397SOL    HW114147   5.502   7.392   3.126  0.1434  0.8898  0.8917
 1397SOL    HW214148   5.357   7.383   3.051  0.7907  1.4948 -0.4437
 1398SOL     OW14149   6.499   0.605   3.439  0.2048  0.0621 -0.1523
 1398SOL    HW114150   6.541   0.519   3.468 -1.2546 -0.0666  1.6911
 1398SOL    HW214151   6.551   0.682   3.476 -0.0730 -0.0714  0.5229
 1399SOL     OW14152   2.284   0.341   1.056 -0.1490 -0.7267 -0.1754
 1399SOL    HW114153   2.297   0.296   0.967  1.2011 -0.0687 -0.3183
 1399SOL    HW214154   2.244   0.275   1.120  0.7703 -1.8143 -0.6916
 1400SOL     OW14155   8.429   4.958   2.402  0.2009 -0.3131 -0.3494
 1400SOL    HW114156   8.521   4.973   2.364  1.0740  0.4672  1.9506
 1400SOL    HW214157   8.421   5.007   2.489 -2.2882 -0.6876 -0.3365
 1401SOL     OW14158   0.075   7.050   3.151  0.5148  0.2242  0.1362
 1401SOL    HW114159  -0.006   7.073   3.206 -0.2101  0.2408 -0.9372
 1401SOL    HW214160   0.149   7.112   3.176  0.6908 -0.7663  2.2250
 1402SOL     OW14161   5.675   9.892   3.686 -0.5103 -0.2322  0.3062
 1402SOL    HW114162   5.704   9.987   3.675  0.7495 -0.3914  2.1373
 1402SOL    HW214163   5.741   9.831   3.641  0.4848 -0.4242  2.0020
 1405SOL     OW14164   2.708   6.606   3.433 -0.1980 -0.1711 -0.4536
 1405SOL    HW114165   2.656   6.660   3.499 -0.4209 -0.4534 -0.3957
 1405SOL    HW214166   2.784   6.660   3.397 -1.1409  0.5940 -1.3101
 1406SOL     OW14167   8.902   2.049   4.432  0.1392 -0.5207 -0.5376
 1406SOL    HW114168   8.911   1.950   4.426 -0.0189 -0.6781  1.6475
 1406SOL    HW214169   8.984   2.092   4.394  0.8462 -1.5140 -0.1510
 1407SOL     OW14170   2.551   7.095   2.397 -0.2400 -0.2030 -0.0987
 1407SOL    HW114171   2.536   7.020   2.332 -0.5734  1.1030 -1.5853
 1407SOL    HW214172   2.490   7.085   2.475 -2.6161  0.2599 -1.8372
 1408SOL     OW14173   9.305   7.910   1.331  0.1808 -0.1674 -0.9022
 1408SOL    HW114174   9.315   7.876   1.237  0.2317 -0.9991 -0.5995
 1408SOL    HW214175   9.351   7.848   1.394 -0.5801 -0.0684 -0.2358
 1410SOL     OW14176   3.671   0.742   0.319 -0.2197 -0.6211 -0.3372
 1410SOL    HW114177   3.574   0.763   0.308 -0.4407 -1.0198  0.7949
 1410SOL    HW214178   3.726   0.803   0.261 -0.9711  1.4815  1.1384
 1411SOL     OW14179   2.725   4.803   3.604  0.8005  0.5248  0.1733
 1411SOL    HW114180   2.730   4.707   3.631 -0.4425  0.0779 -1.0994
 1411SOL    HW214181   2.745   4.812   3.506 -0.7937  1.3383 -0.1008
 1412SOL     OW14182   1.071   7.472   1.537  0.1264  0.1112 -0.1282
 1412SOL    HW114183   1.015   7.456   1.456 -0.9831  2.4024  0.1515
 1412SOL    HW214184   1.117   7.387   1.563 -0.8329 -1.0613 -2.1416
 1414SOL     OW14185   4.679   8.846   4.339 -0.4681 -0.2489 -0.1449
 1414SOL    HW114186   4.590   8.822   4.301 -0.1898 -0.5627 -0.5939
 1414SOL    HW214187   4.671   8.933   4.389 -1.0030 -0.2338 -0.2511
 1415SOL     OW14188   3.147   3.205   3.448  0.2616 -0.5574 -0.1698
 1415SOL    HW114189   3.125   3.171   3.539  3.2844  0.4900  1.0201
 1415SOL    HW214190   3.131   3.134   3.381 -0.4480 -1.8827  1.3694
 1416SOL     OW14191   9.112   1.044   1.730 -0.0197 -0.1094  0.4567
 1416SOL    HW114192   9.057   1.045   1.647  1.4748  0.1796 -0.5379
 1416SOL    HW214193   9.090   0.963   1.784 -1.5342  0.0879  0.1636
 1418SOL     OW14194   9.992   4.890   2.192 -0.6302  0.0576  0.2963
 1418SOL    HW114195  10.067   4.870   2.255 -0.6957 -0.4806  0.2094
 1418SOL    HW214196   9.988   4.819   2.121 -2.5784 -1.1691  1.5644
 1419SOL     OW14197   8.447   4.453   3.201  0.5031  0.4424 -0.0461
 1419SOL    HW114198   8.388   4.449   3.120  1.6954 -0.9410 -0.8611
 1419SOL    HW214199   8.450   4.363   3.244  2.0740  0.4976 -0.0458
 1421SOL     OW14200   7.166   1.285   2.349 -0.2639 -0.1638 -0.2121
 1421SOL    HW114201   7.075   1.320   2.330  0.1054  1.0517  0.2124
 1421SOL    HW214202   7.160   1.203   2.405 -1.2118 -1.7006 -2.4827
 1422SOL     OW14203   7.626   2.124   3.097  0.0704  0.1996 -0.4175
 1422SOL    HW114204   7.687   2.096   3.171  2.3229  0.6149 -2.0891
 1422SOL    HW214205   7.543   2.164   3.136 -0.8371 -3.7565  1.9556
 1423SOL     OW14206   8.183   6.292   3.450  0.7424 -0.1178  0.1525
 1423SOL    HW114207   8.120   6.241   3.509  1.5413 -0.0386  1.0911
 1423SOL    HW214208   8.132   6.337   3.378 -0.2475 -0.2524  0.7586
 1424SOL     OW14209   2.339   7.410   0.219 -0.1656 -0.3457  0.1281
 1424SOL    HW114210   2.328   7.313   0.197  1.3944 -0.5196  0.0401
 1424SOL    HW214211   2.425   7.423   0.269  1.0398  1.3458 -2.2546
 1425SOL     OW14212   1.687   4.852   1.646 -0.0856 -0.3705 -0.2917
 1425SOL    HW114213   1.755   4.787   1.681 -0.0322 -1.0512 -1.6221
 1425SOL    HW214214   1.601   4.841   1.697  1.2397  1.5875  2.4785
 1426SOL     OW14215   2.678   8.166   3.993 -0.4366 -0.3617  0.1784
 1426SOL    HW114216   2.754   8.228   3.975 -0.3013 -0.3782  0.6931
 1426SOL    HW214217   2.593   8.219   3.996 -0.1277  0.0678  2.3098
 1427SOL     OW14218   2.444   4.634   2.896 -0.7475 -0.3343 -0.0404
 1427SOL    HW114219   2.451   4.576   2.977 -0.1541 -2.3621 -1.5216
 1427SOL    HW214220   2.379   4.594   2.831  0.4262  0.0912 -1.5196
 1428SOL     OW14221   4.604   8.561   0.513 -0.3396 -0.3958  0.2810
 1428SOL    HW114222   4.607   8.588   0.417  0.4754 -0.1490  0.3653
 1428SOL    HW214223   4.632   8.466   0.522  2.2797  0.3425  0.5198
 1429SOL     OW14224   0.072   2.401   1.768 -0.0218 -0.4271 -0.0072
 1429SOL    HW114225  -0.017   2.446   1.767  0.9699  1.6848  1.9126
 1429SOL    HW214226   0.107   2.393   1.675 -1.6766 -0.1874 -0.6534
 1430SOL     OW14227   9.260   8.146   3.806 -0.2202 -0.1236 -0.2737
 1430SOL    HW114228   9.299   8.115   3.720  2.7429 -0.1326  1.0318
 1430SOL    HW214229   9.217   8.069   3.853 -0.8281 -0.3492 -1.1875
 1431SOL     OW14230   1.413   8.102   2.279  0.2646 -0.2239  0.0795
 1431SOL    HW114231   1.460   8.070   2.197  1.4265 -1.1141  1.0727
 1431SOL    HW214232   1.464   8.178   2.320 -1.0045  1.0901 -0.7268
 1432SOL     OW14233   1.612   6.965   0.590  0.1238  0.0343 -0.1351
 1432SOL    HW114234   1.513   6.957   0.574 -0.4589  2.4118  1.8603
 1432SOL    HW214235   1.642   7.056   0.561  1.6948 -0.5790 -0.4558
 1433SOL     OW14236   2.547   5.174   3.043 -0.2252 -0.4155 -0.4961
 1433SOL    HW114237   2.538   5.186   2.944  1.2302 -0.1285 -0.6054
 1433SOL    HW214238   2.626   5.116   3.063  2.3602  3.2872  0.6311
 1435SOL     OW14239   8.794   5.658   2.571  0.3234  0.2282  0.3636
 1435SOL    HW114240   8.754   5.610   2.493 -1.1372  0.4436  0.9651
 1435SOL    HW214241   8.887   5.685   2.549 -0.6839  1.9176 -1.9727
 1436SOL     OW14242   9.903   4.039   1.196 -0.0236 -1.2337  0.2501
 1436SOL    HW114243   9.876   4.102   1.269  1.8349 -1.1759  0.9047
 1436SOL    HW214244   9.886   4.082   1.107 -0.1861 -0.4129  0.6759
 1437SOL     OW14245   9.014   9.708   0.974 -0.3030 -0.2130 -0.0695
 1437SOL    HW114246   8.986   9.686   1.067  1.3807  1.0541  0.7530
 1437SOL    HW214247   8.937   9.694   0.912 -1.6518 -0.3454  1.6047
 1439SOL     OW14248   4.502   3.683   3.483 -0.3412  0.2359  0.4899
 1439SOL    HW114249   4.470   3.602   3.434 -2.1267  1.2835 -0.1139
 1439SOL    HW214250   4.447   3.696   3.565 -1.3228  1.9012 -0.4064
 1440SOL     OW14251   1.842   0.933   0.608  0.8471  0.1425  0.0623
 1440SOL    HW114252   1.796   0.988   0.538  0.8964  1.2781  0.9026
 1440SOL    HW214253   1.817   0.967   0.699  0.5944 -1.4697  0.6196
 1444SOL     OW14254   2.092   7.867   0.111  0.2342  0.1933  0.1890
 1444SOL    HW114255   2.053   7.780   0.140  0.6053  0.0442  0.2411
 1444SOL    HW214256   2.083   7.934   0.184  0.6711 -0.0275  0.4487
 1446SOL     OW14257   0.435   3.859   0.632 -0.1781 -0.4073  0.1466
 1446SOL    HW114258   0.394   3.874   0.542 -0.7855 -0.4171  0.4198
 1446SOL    HW214259   0.488   3.940   0.658 -1.3160  0.2627  0.4739
 1447SOL     OW14260   1.194   9.172   0.814  0.2579  0.5520 -0.0545
 1447SOL    HW114261   1.116   9.155   0.874 -0.4201  2.6333 -0.2864
 1447SOL    HW214262   1.161   9.195   0.722  1.1016  1.9717 -0.0212
 1449SOL     OW14263   0.850   8.768   2.182 -0.4182 -0.2087  0.1532
 1449SOL    HW114264   0.754   8.752   2.158 -0.1177 -1.2180 -0.3667
 1449SOL    HW214265   0.854   8.813   2.271 -1.4222  0.9599 -0.3689
 1450SOL     OW14266   2.385   5.384   2.225  0.4686 -0.1601  0.5496
 1450SOL    HW114267   2.463   5.323   2.216 -0.4074 -1.2533  0.2516
 1450SOL    HW214268   2.318   5.344   2.288 -0.3032  0.2934  0.0268
 1451SOL     OW14269   1.864   4.687   2.312 -0.3416  0.3768 -0.0117
 1451SOL    HW114270   1.768   4.712   2.303 -0.4972 -0.4174 -0.5237
 1451SOL    HW214271   1.903   4.670   2.222  0.1071  0.0477  0.2439
 1452SOL     OW14272   6.817   9.164   1.188 -0.2859  0.1966  0.0255
 1452SOL    HW114273   6.845   9.253   1.153  0.8532 -0.0101  0.3929
 1452SOL    HW214274   6.717   9.160   1.193 -0.3294  1.6405  0.4956
 1453SOL     OW14275   2.399   8.981   3.688 -0.1917 -0.0525 -0.0266
 1453SOL    HW114276   2.324   8.987   3.622 -1.5276 -1.7508  1.3009
 1453SOL    HW214277   2.367   8.936   3.771  1.8953  0.6261  1.1844
 1454SOL     OW14278   5.185   3.207   0.545  0.1175  0.3677 -0.4095
 1454SOL    HW114279   5.272   3.256   0.540 -1.7266  3.7686 -0.6379
 1454SOL    HW214280   5.119   3.261   0.598 -1.5200 -2.7016  0.8010
 1455SOL     OW14281   0.583   3.127   2.846  0.0242 -0.2845  0.3364
 1455SOL    HW114282   0.485   3.132   2.826 -0.2143 -0.7568  1.3413
 1455SOL    HW214283   0.596   3.080   2.934  1.1074  0.4593  0.5759
 1456SOL     OW14284   4.239   2.573   1.352  0.7516 -0.1054  0.3076
 1456SOL    HW114285   4.282   2.562   1.441  0.7233  0.5912  0.4161
 1456SOL    HW214286   4.204   2.667   1.344 -0.6680 -0.6349  0.1912
 1457SOL     OW14287   0.526   1.466   1.452 -0.3947 -0.2368  0.3242
 1457SOL    HW114288   0.567   1.482   1.542 -0.9398  0.3362  0.4726
 1457SOL    HW214289   0.535   1.370   1.428  4.0206  0.4141 -1.1092
 1459SOL     OW14290   7.459   8.377   4.299  0.1247  0.0914  0.1701
 1459SOL    HW114291   7.459   8.328   4.212  0.4534  0.2868  0.0589
 1459SOL    HW214292   7.366   8.380   4.335 -0.0663  0.2747 -0.3232
 1460SOL     OW14293   1.800   4.406   2.179 -0.1340 -0.1507  0.2705
 1460SOL    HW114294   1.701   4.421   2.174  0.0809  1.0511 -0.7028
 1460SOL    HW214295   1.821   4.316   2.140 -1.0584 -1.4129  2.5920
 1461SOL     OW14296   0.634   0.344   2.637  0.1712 -0.3670 -0.2480
 1461SOL    HW114297   0.540   0.324   2.664 -0.5016  0.9729 -1.5435
 1461SOL    HW214298   0.652   0.306   2.546  0.4065  0.6610 -0.6336
 1462SOL     OW14299   5.878   1.158   2.576 -0.2601  0.3910  0.3832
 1462SOL    HW114300   5.975   1.159   2.551 -0.4844 -0.1283 -0.5176
 1462SOL    HW214301   5.834   1.077   2.537 -1.4854  1.6193 -0.8623
 1463SOL     OW14302   5.781   6.750   2.623 -0.7051  0.3810 -0.2503
 1463SOL    HW114303   5.788   6.652   2.607  1.9401  0.4847  0.0969
 1463SOL    HW214304   5.738   6.766   2.712  1.0702 -0.5306  0.7884
 1465SOL     OW14305   6.260   9.350   2.088 -0.0327  0.4198  0.2217
 1465SOL    HW114306   6.163   9.330   2.105  0.5358 -2.0695  0.6270
 1465SOL    HW214307   6.310   9.347   2.175  0.7400 -0.2398 -0.2440
 1467SOL     OW14308   4.397   0.812   3.994  0.6901 -0.2484 -0.3790
 1467SOL    HW114309   4.365   0.738   3.933  1.2021  0.3164 -1.3490
 1467SOL    HW214310   4.468   0.865   3.947 -0.6968  1.7661 -0.2546
 1468SOL     OW14311   4.593   6.580   2.748 -0.1150 -0.5059  0.0706
 1468SOL    HW114312   4.597   6.499   2.806 -2.1110 -0.5313  0.2021
 1468SOL    HW214313   4.527   6.645   2.785  0.8272  0.8145 -0.5079
 1469SOL     OW14314   3.576   1.112   4.199  0.1245 -0.2538 -0.1391
 1469SOL    HW114315   3.564   1.160   4.286  1.7336 -1.4902  0.7815
 1469SOL    HW214316   3.667   1.070   4.196 -0.1151 -0.6821 -2.2020
 1470SOL     OW14317   1.550   5.696   0.900  0.1776 -0.7733 -0.1312
 1470SOL    HW114318   1.461   5.732   0.873  0.3354 -1.2950 -1.3982
 1470SOL    HW214319   1.574   5.619   0.841  1.7868 -0.1970 -0.2510
 1471SOL     OW14320   7.979   1.808   3.116 -0.2658  0.5544  0.6588
 1471SOL    HW114321   7.969   1.717   3.077  0.0944  1.2272 -1.0632
 1471SOL    HW214322   8.022   1.869   3.049  2.3104  1.2354  2.8125
 1472SOL     OW14323   6.341   0.491   0.660 -0.3128 -0.0575  0.0759
 1472SOL    HW114324   6.361   0.405   0.706  1.3207  1.2220  1.8474
 1472SOL    HW214325   6.420   0.521   0.607 -0.9770  0.2164 -0.7824
 1473SOL     OW14326   0.117   8.148   3.601  0.1653  0.3808  0.6524
 1473SOL    HW114327   0.088   8.241   3.624 -1.3361 -0.1219  0.8239
 1473SOL    HW214328   0.059   8.112   3.528 -0.1171 -0.9064  1.5047
 1475SOL     OW14329   9.295   5.948   3.193  0.2379  0.1672  0.0902
 1475SOL    HW114330   9.222   5.982   3.252  0.3726  1.0238 -0.2243
 1475SOL    HW214331   9.263   5.948   3.098 -0.0818 -1.4829  0.1912
 1476SOL     OW14332   0.310   4.625   2.855  0.6495 -0.1764 -0.0862
 1476SOL    HW114333   0.228   4.649   2.907 -0.0638  0.8143 -1.6605
 1476SOL    HW214334   0.327   4.526   2.864  0.9149  0.0630  2.5325
 1477SOL     OW14335   6.990   1.465   3.100 -0.3240 -0.6365  0.0030
 1477SOL    HW114336   7.019   1.547   3.052 -1.3698 -1.6998 -2.5128
 1477SOL    HW214337   7.031   1.385   3.058  1.3239 -1.4197  2.9290
 1480SOL     OW14338   9.522   2.278   0.160  0.0518  0.0573  0.0298
 1480SOL    HW114339   9.526   2.378   0.171 -1.1730  0.0814  0.3393
 1480SOL    HW214340   9.595   2.249   0.098 -0.5712  1.3345 -1.3402
 1481SOL     OW14341   9.560   7.057   3.617 -0.0575 -0.7611  0.1192
 1481SOL    HW114342   9.480   7.015   3.573 -0.9403  0.3625  0.6369
 1481SOL    HW214343   9.562   7.155   3.596  0.1873 -0.4515  1.5706
 1483SOL     OW14344   9.401   9.085   2.788  0.0645 -0.1781  0.3269
 1483SOL    HW114345   9.470   9.143   2.744  0.7014  0.4099  2.0467
 1483SOL    HW214346   9.408   8.992   2.752  0.5855  0.2755 -0.7760
 1484SOL     OW14347   0.922   5.570   1.389  0.0500  0.4976  0.7361
 1484SOL    HW114348   0.872   5.488   1.418 -0.6134 -0.2651 -2.3945
 1484SOL    HW214349   1.014   5.543   1.358  0.2377  1.0955  0.7735
 1485SOL     OW14350   4.408   1.991   2.672  0.0153  0.3790 -0.2376
 1485SOL    HW114351   4.469   2.037   2.736  0.2534 -0.2965  0.0293
 1485SOL    HW214352   4.317   2.032   2.676 -0.7236 -1.3607  2.4871
 1486SOL     OW14353   2.781   4.337   2.251 -0.4334  0.2325  0.6772
 1486SOL    HW114354   2.864   4.371   2.208 -0.0439 -0.1470  1.1240
 1486SOL    HW214355   2.804   4.291   2.337 -0.9175 -1.4615 -0.0756
 1487SOL     OW14356   1.415   9.019   1.509  0.5768 -0.2413  0.3442
 1487SOL    HW114357   1.390   8.932   1.468 -0.1908  0.3389 -0.4353
 1487SOL    HW214358   1.344   9.047   1.573  0.0534  0.5611 -0.5713
 1490SOL     OW14359   2.130   0.798   3.473  0.2280  0.0043 -0.3025
 1490SOL    HW114360   2.147   0.889   3.435 -0.0205  0.2697  0.2106
 1490SOL    HW214361   2.181   0.788   3.558 -0.5907  0.0715  0.2054
 1491SOL     OW14362   1.109   0.979   4.271  0.6221 -0.0040  0.1036
 1491SOL    HW114363   1.100   0.989   4.370  1.4421 -0.2595  0.2082
 1491SOL    HW214364   1.026   1.012   4.226  0.4595  0.5914  0.8434
 1492SOL     OW14365   4.538   0.436   1.727 -0.4988 -0.5112 -0.0505
 1492SOL    HW114366   4.447   0.460   1.759 -0.2648 -1.5173  1.4344
 1492SOL    HW214367   4.601   0.433   1.805  0.1286 -2.8029 -0.6064
 1495SOL     OW14368   3.745   0.382   3.353  0.3992  0.3735 -0.0863
 1495SOL    HW114369   3.836   0.401   3.390  0.3463  1.2780 -0.4274
 1495SOL    HW214370   3.712   0.295   3.390  0.5952  0.9712  1.5343
 1496SOL     OW14371   8.837   1.554   1.110 -0.1871  0.1703  0.2201
 1496SOL    HW114372   8.845   1.460   1.076 -0.4022  0.7591 -1.5259
 1496SOL    HW214373   8.902   1.612   1.060 -1.1654  1.2364  0.1833
 1497SOL     OW14374   0.528   1.871   3.885  0.3609  0.4991  0.5237
 1497SOL    HW114375   0.594   1.936   3.848 -0.3126  0.1932 -1.2560
 1497SOL    HW214376   0.564   1.778   3.876 -0.8141  0.2060 -1.6897
 1498SOL     OW14377   1.516   5.336   4.365 -0.1929 -0.2136 -0.4287
 1498SOL    HW114378   1.462   5.405   4.413 -0.4494 -2.3058  2.3515
 1498SOL    HW214379   1.602   5.320   4.414 -0.1085 -1.8350 -1.0818
 1499SOL     OW14380   0.890   7.646   2.871  0.1980  0.1698 -0.7552
 1499SOL    HW114381   0.945   7.602   2.799  0.3918  0.0954 -0.5625
 1499SOL    HW214382   0.814   7.695   2.829  0.9213  1.0173 -1.0866
 1500SOL     OW14383   9.310   1.387   2.499  0.0932  0.0651 -0.4891
 1500SOL    HW114384   9.380   1.328   2.460 -0.4694 -0.5591 -0.5635
 1500SOL    HW214385   9.339   1.483   2.492  0.1029 -0.0499 -2.2093
 1501SOL     OW14386   0.918   3.532   3.921 -0.2517 -0.4913  0.0328
 1501SOL    HW114387   0.836   3.514   3.976 -0.7428  0.6271 -0.3160
 1501SOL    HW214388   0.998   3.529   3.980 -0.7557  0.4818  0.7803
 1504SOL     OW14389   0.294   6.186   3.995  0.1668 -0.4306  0.4915
 1504SOL    HW114390   0.354   6.261   4.022 -0.5914  0.8912 -1.4192
 1504SOL    HW214391   0.213   6.223   3.949 -0.6008 -2.3774  0.2329
 1505SOL     OW14392   7.361   8.107   2.178  0.6731  0.4286 -0.2076
 1505SOL    HW114393   7.398   8.172   2.113 -1.6469  2.7874  0.7317
 1505SOL    HW214394   7.400   8.124   2.269  1.5567 -0.8176 -0.3417
 1506SOL     OW14395   3.883   1.316   4.118  0.0200 -0.4737  0.0856
 1506SOL    HW114396   3.889   1.323   4.018 -0.8703 -0.5725  0.0290
 1506SOL    HW214397   3.799   1.359   4.149 -0.4755 -1.8522  0.6599
 1507SOL     OW14398   9.368   6.947   2.166  0.0592  0.5552 -0.4698
 1507SOL    HW114399   9.465   6.954   2.141  0.1480  0.3611 -0.1786
 1507SOL    HW214400   9.318   7.022   2.124 -0.2421 -1.1696 -3.3837
 1508SOL     OW14401   0.841   6.571   3.541 -0.1331 -0.3116 -0.4463
 1508SOL    HW114402   0.773   6.512   3.584  0.2336 -0.3602  0.0787
 1508SOL    HW214403   0.799   6.622   3.466 -0.9762  0.3932  0.5017
 1510SOL     OW14404   1.788   3.253   1.236  0.1273  0.1609  0.7515
 1510SOL    HW114405   1.731   3.189   1.184  2.5849 -1.9339  0.5489
 1510SOL    HW214406   1.783   3.344   1.193 -1.3044 -0.4989 -0.5521
 1513SOL     OW14407   2.867   4.854   3.823  0.1585  0.0761 -0.0762
 1513SOL    HW114408   2.821   4.813   3.902  0.8247  0.0433  0.2979
 1513SOL    HW214409   2.803   4.860   3.747 -0.5905  0.4103  0.5649
 1514SOL     OW14410   3.856   3.199   3.028  0.0573 -0.6569  0.8290
 1514SOL    HW114411   3.812   3.127   2.974  0.3692 -0.5466  0.4244
 1514SOL    HW214412   3.795   3.278   3.036 -0.7625 -1.4059  2.2639
 1515SOL     OW14413   4.485   2.955   0.558  0.8345  0.0247  0.0798
 1515SOL    HW114414   4.513   3.048   0.536  0.6564  0.2065  0.6195
 1515SOL    HW214415   4.392   2.938   0.524  1.2335 -0.2829 -0.8978
 1516SOL     OW14416   2.906   7.143   3.278 -0.1144 -0.0329  0.4496
 1516SOL    HW114417   3.004   7.158   3.287 -0.3828  0.7688  2.2233
 1516SOL    HW214418   2.885   7.118   3.183  1.7071  0.3968 -0.0937
 1517SOL     OW14419   9.620   8.508   0.715 -1.0512  0.5172  0.5614
 1517SOL    HW114420   9.571   8.424   0.740 -0.3138 -0.0468  0.1448
 1517SOL    HW214421   9.580   8.586   0.763 -2.0469 -0.0056  0.5971
 1519SOL     OW14422   2.930   0.321   3.399 -0.2146 -0.2265  0.3779
 1519SOL    HW114423   2.923   0.385   3.323  2.1437  0.2948  0.5507
 1519SOL    HW214424   2.956   0.231   3.364 -2.3395 -0.8080  0.2571
 1520SOL     OW14425   9.481   6.225   3.999  0.8362  0.2816  0.0127
 1520SOL    HW114426   9.480   6.172   3.914  1.9726  1.7717 -0.9571
 1520SOL    HW214427   9.388   6.254   4.021  0.9849  3.4182 -3.0350
 1521SOL     OW14428   8.069   4.370   0.231 -0.5381  0.0896 -0.0053
 1521SOL    HW114429   8.092   4.390   0.136  0.1035  0.4159  0.2110
 1521SOL    HW214430   7.971   4.351   0.239 -0.1941 -2.2670 -1.1056
 1522SOL     OW14431   8.865   7.160   1.118 -0.1546 -0.3440  0.1665
 1522SOL    HW114432   8.878   7.245   1.067  1.6779  0.0449  1.2494
 1522SOL    HW214433   8.920   7.087   1.077  2.2902  0.2717  2.2775
 1523SOL     OW14434   3.866   3.548   3.210 -0.1510  0.1535  0.0630
 1523SOL    HW114435   3.790   3.595   3.256  0.1205 -0.1144  0.7988
 1523SOL    HW214436   3.946   3.607   3.210 -0.4681  0.5992 -1.0798
 1524SOL     OW14437   7.864   9.146   1.561  0.4142  0.4412 -0.0785
 1524SOL    HW114438   7.769   9.167   1.584  0.1200 -0.8291 -0.1399
 1524SOL    HW214439   7.922   9.224   1.587 -0.6758  1.3432 -0.3313
 1525SOL     OW14440   2.293   4.167   3.216  0.3493 -0.3728  0.3072
 1525SOL    HW114441   2.204   4.213   3.215  0.8900  0.7091  1.6426
 1525SOL    HW214442   2.288   4.084   3.161 -1.5204 -0.3761  0.4708
 1528SOL     OW14443   0.506   3.512   3.897 -0.1229  0.5117  0.0624
 1528SOL    HW114444   0.596   3.539   3.931  1.4416 -1.8452 -2.0026
 1528SOL    HW214445   0.460   3.591   3.858  1.0788  1.7285  1.0307
 1531SOL     OW14446   7.309   0.522   2.115 -0.2793  0.1645  0.0883
 1531SOL    HW114447   7.378   0.539   2.185  0.0537 -1.7130  0.2416
 1531SOL    HW214448   7.327   0.580   2.035  0.2652  1.1591  0.9339
 1532SOL     OW14449   8.346   3.002   0.940  0.3098 -0.4526 -0.2012
 1532SOL    HW114450   8.338   3.096   0.906  0.2913 -0.9470 -1.5738
 1532SOL    HW214451   8.282   2.943   0.891 -0.2679 -1.0427  1.2328
 1533SOL     OW14452   8.789   8.181   2.628 -0.3539 -1.1570 -0.3440
 1533SOL    HW114453   8.804   8.099   2.684  2.1053 -0.4903  0.0239
 1533SOL    HW214454   8.739   8.249   2.681  3.0028 -0.0641  1.5128
 1534SOL     OW14455   9.836   1.900   1.419  0.2327  0.3116 -0.2808
 1534SOL    HW114456   9.806   1.849   1.500 -0.0666 -1.3886 -1.4536
 1534SOL    HW214457   9.918   1.953   1.443 -1.2442  1.7703  1.7989
 1535SOL     OW14458   2.690   9.714   0.432 -0.3720  0.6049  0.2134
 1535SOL    HW114459   2.761   9.659   0.388  0.3853  0.3170  1.7670
 1535SOL    HW214460   2.601   9.669   0.421  0.1330 -0.5480  0.8443
 1538SOL     OW14461   3.627   8.390   3.379  0.3733 -0.2109  0.1687
 1538SOL    HW114462   3.530   8.398   3.357  0.7242 -0.3989 -1.4540
 1538SOL    HW214463   3.671   8.327   3.315  1.1454 -1.8086  2.1724
 1540SOL     OW14464   3.203   1.900   0.461  0.5608 -0.0379  0.3724
 1540SOL    HW114465   3.163   1.930   0.547  1.7628 -2.3543  1.7805
 1540SOL    HW214466   3.282   1.958   0.439 -1.4950  2.4288 -0.7252
 1541SOL     OW14467   8.368   4.709   0.992 -0.0969 -0.0345  0.1080
 1541SOL    HW114468   8.353   4.657   1.076 -1.1274 -1.9120 -1.1918
 1541SOL    HW214469   8.293   4.691   0.928  0.3916  1.7858 -1.0337
 1542SOL     OW14470   9.133   1.803   2.498  0.2355  0.3232  0.6215
 1542SOL    HW114471   9.037   1.824   2.515 -0.1280 -0.7230 -0.0947
 1542SOL    HW214472   9.190   1.850   2.566 -0.8572  0.0259  1.7560
 1543SOL     OW14473   2.527   1.335   4.021 -0.4530 -0.0479 -0.0585
 1543SOL    HW114474   2.477   1.413   4.057 -1.0393 -0.6207  0.3790
 1543SOL    HW214475   2.616   1.365   3.986  0.1624  0.5106  1.9160
 1544SOL     OW14476   9.174   8.440   3.775 -0.2459  0.8681  0.1418
 1544SOL    HW114477   9.204   8.345   3.764 -1.7056  0.2062  1.7565
 1544SOL    HW214478   9.095   8.457   3.716  0.1418  1.1589 -0.3034
 1545SOL     OW14479   3.596   0.680   1.172 -0.2371  0.1674  0.0381
 1545SOL    HW114480   3.601   0.647   1.078  1.5691  0.1443  0.1318
 1545SOL    HW214481   3.631   0.610   1.234 -0.1269  0.7097  0.5954
 1546SOL     OW14482   1.145   0.193   1.326 -0.3933  0.2774  0.2642
 1546SOL    HW114483   1.140   0.286   1.364 -0.9268 -0.0153  0.9221
 1546SOL    HW214484   1.207   0.193   1.247  0.4247  0.9788  0.8898
 1547SOL     OW14485   0.040   4.313   1.057  1.1021 -0.0241 -0.1096
 1547SOL    HW114486   0.061   4.273   1.146  0.0739 -0.4727 -0.0633
 1547SOL    HW214487  -0.026   4.255   1.009  0.6658  0.8872 -0.6230
 1548SOL     OW14488   4.931   9.589   1.379 -0.4959 -0.5768  0.3453
 1548SOL    HW114489   4.901   9.600   1.474  0.8792 -0.2268  0.7594
 1548SOL    HW214490   4.953   9.493   1.362  0.6190 -0.4082  0.8090
 1550SOL     OW14491   1.777   5.533   3.207  0.2142  0.0869 -0.2402
 1550SOL    HW114492   1.713   5.572   3.274  1.0234 -1.3643  1.4335
 1550SOL    HW214493   1.743   5.550   3.115 -1.8944  0.5229  0.5753
 1551SOL     OW14494   3.664   6.148   0.766  0.1026 -0.4259 -0.5215
 1551SOL    HW114495   3.710   6.084   0.828  1.8603  1.7125  0.4679
 1551SOL    HW214496   3.593   6.197   0.816  0.9277  0.6740 -0.4157
 1552SOL     OW14497   8.181   0.071   0.678 -0.3373 -0.3332  0.2763
 1552SOL    HW114498   8.203   0.125   0.758 -1.9614  0.1326  0.4221
 1552SOL    HW214499   8.264   0.056   0.623  0.8916 -1.1541  2.3182
 1553SOL     OW14500   9.956   4.631   0.796 -0.1163  0.0278  0.0204
 1553SOL    HW114501   9.860   4.654   0.783  0.4800  2.4581 -0.4177
 1553SOL    HW214502   9.970   4.533   0.779 -2.4405 -0.2908 -0.1812
 1554SOL     OW14503   5.382   8.703   2.462  0.4707  0.4904 -0.2875
 1554SOL    HW114504   5.333   8.616   2.473  0.3658  0.6507  0.5772
 1554SOL    HW214505   5.381   8.730   2.366 -0.7296  0.2544 -0.3496
 1555SOL     OW14506   1.491   3.933   4.052 -0.2373  0.1516  0.2756
 1555SOL    HW114507   1.484   3.858   3.987 -0.2748  0.8141 -0.4982
 1555SOL    HW214508   1.499   4.020   4.003  1.5047  0.5119  1.1436
 1557SOL     OW14509   6.958   0.298   3.300 -0.1241  0.1567  0.5988
 1557SOL    HW114510   6.989   0.391   3.285 -1.0529  0.1869 -1.4179
 1557SOL    HW214511   6.862   0.299   3.329 -0.3282 -0.1693 -0.0416
 1558SOL     OW14512   9.331   3.875   0.396 -0.0576  0.3216  0.7687
 1558SOL    HW114513   9.391   3.931   0.339 -0.1774 -2.5396 -2.3295
 1558SOL    HW214514   9.247   3.855   0.346 -0.5290 -1.5904  2.2676
 1559SOL     OW14515   0.167   0.473   1.339  0.2103 -0.2292  0.3192
 1559SOL    HW114516   0.189   0.390   1.286  1.4751 -0.0004  0.4646
 1559SOL    HW214517   0.089   0.455   1.399  1.3922 -1.7831  1.4248
 1560SOL     OW14518   7.688   1.257   0.498  0.0762  0.3923 -0.3306
 1560SOL    HW114519   7.751   1.184   0.521 -1.3565 -0.6598  0.3584
 1560SOL    HW214520   7.721   1.343   0.535  0.9879 -0.1888  0.2182
 1561SOL     OW14521   1.908   7.011   3.095  0.1914 -0.3227 -0.1163
 1561SOL    HW114522   1.926   7.091   3.036  0.6299 -0.3913 -0.0821
 1561SOL    HW214523   1.831   7.030   3.155 -0.1673 -0.1957 -0.6156
 1562SOL     OW14524   1.562   2.374   4.184  0.3311 -0.0993  0.1270
 1562SOL    HW114525   1.524   2.282   4.191  0.5547 -0.2322 -0.3810
 1562SOL    HW214526   1.655   2.374   4.221 -0.9465  0.7274  3.4894
 1563SOL     OW14527   2.947   7.473   0.690  0.0528 -0.4567 -0.1804
 1563SOL    HW114528   2.972   7.386   0.648  0.1299 -0.6815  0.3409
 1563SOL    HW214529   2.930   7.461   0.787 -0.1351  0.0714 -0.1434
 1564SOL     OW14530   2.500   0.887   4.357 -0.2281 -0.1947 -0.5594
 1564SOL    HW114531   2.438   0.813   4.329 -1.2227  0.4775 -0.1797
 1564SOL    HW214532   2.446   0.964   4.390  0.8126  0.6578 -0.8380
 1565SOL     OW14533   9.322   4.212   1.680  0.2948  0.0816 -0.1871
 1565SOL    HW114534   9.247   4.169   1.731 -0.1876  1.8332  0.6189
 1565SOL    HW214535   9.371   4.276   1.740  0.5517  1.1761 -1.5347
 1566SOL     OW14536   7.746   0.905   4.139  0.0515 -0.1321  0.4272
 1566SOL    HW114537   7.697   0.818   4.149 -0.7750  0.4960  2.0819
 1566SOL    HW214538   7.779   0.935   4.228  1.4049  0.6416 -0.3295
 1567SOL     OW14539   0.815   1.804   3.459 -0.6223  0.6542  0.8661
 1567SOL    HW114540   0.716   1.813   3.475 -0.1896  2.6067  2.6894
 1567SOL    HW214541   0.831   1.775   3.365 -2.8956  2.3570 -0.1000
 1568SOL     OW14542   8.069   9.818   2.738  0.4326 -0.1993  0.4705
 1568SOL    HW114543   8.001   9.814   2.812 -1.6036 -0.5136 -1.3651
 1568SOL    HW214544   8.128   9.898   2.751 -1.6330  1.2766  0.9946
 1569SOL     OW14545   9.797   8.209   0.801  0.1386 -0.2686 -0.5275
 1569SOL    HW114546   9.740   8.171   0.874 -0.5874 -0.6329 -1.2743
 1569SOL    HW214547   9.770   8.304   0.782  0.2180 -0.2277 -0.4359
 1570SOL     OW14548   2.226   6.854   3.996 -0.3339 -0.8614  0.6990
 1570SOL    HW114549   2.216   6.948   3.961  1.5402 -2.2793 -4.0359
 1570SOL    HW214550   2.137   6.808   3.994 -0.6471 -0.2364 -0.2874
 1571SOL     OW14551   4.751   2.692   0.397  0.2301  0.6152  0.1511
 1571SOL    HW114552   4.659   2.695   0.358  0.6938  1.9589 -0.8733
 1571SOL    HW214553   4.807   2.627   0.346 -0.1852 -0.3248  0.8773
 1572SOL     OW14554   7.580   4.976   0.519  0.6048 -0.7143 -0.5936
 1572SOL    HW114555   7.549   5.020   0.435 -2.0314 -1.2208  0.0599
 1572SOL    HW214556   7.534   4.888   0.529  1.0288 -0.7493  1.2925
 1573SOL     OW14557   1.426   8.124   4.379  0.1119  0.2359  0.2550
 1573SOL    HW114558   1.488   8.171   4.315 -0.2263  0.3442  0.0030
 1573SOL    HW214559   1.464   8.128   4.471 -0.7280  2.4870  0.5381
 1574SOL     OW14560   0.666   3.386   3.634  0.2927  0.3148  0.0274
 1574SOL    HW114561   0.705   3.388   3.542  1.7084  0.4669  0.6165
 1574SOL    HW214562   0.660   3.291   3.666  0.0823  0.2836 -0.1042
 1575SOL     OW14563   3.669   4.329   0.099  0.0550 -0.3805  0.4132
 1575SOL    HW114564   3.654   4.347   0.002  1.7526 -0.4456  0.1103
 1575SOL    HW214565   3.632   4.403   0.154 -0.5065 -0.1226 -0.3165
 1577SOL     OW14566   8.389   3.689   2.935 -0.2098 -0.0351 -0.0044
 1577SOL    HW114567   8.358   3.614   2.994 -2.0881 -1.1520 -2.3443
 1577SOL    HW214568   8.323   3.763   2.938 -1.3512 -0.9212 -2.1968
 1578SOL     OW14569   4.695   4.176   1.383 -0.9190 -0.2212  0.1864
 1578SOL    HW114570   4.738   4.162   1.294 -0.5763  2.9346 -0.2063
 1578SOL    HW214571   4.613   4.232   1.371 -1.4614 -0.6619  1.7404
 1579SOL     OW14572   9.981   9.467   3.641  0.1428  0.2081 -0.0227
 1579SOL    HW114573  10.033   9.522   3.707  0.3736 -0.3616  0.2657
 1579SOL    HW214574   9.999   9.370   3.656 -1.2449 -0.0136  0.2811
 1581SOL     OW14575   1.829   5.906   3.518  0.1841  0.1891 -0.4471
 1581SOL    HW114576   1.841   5.857   3.604 -0.0061  0.4202 -0.2880
 1581SOL    HW214577   1.828   6.004   3.535 -0.9932  0.2013 -0.5626
 1582SOL     OW14578   1.913   7.978   0.830 -0.3121 -0.5158  0.6943
 1582SOL    HW114579   1.947   8.022   0.747  1.2110  0.1538  1.6444
 1582SOL    HW214580   1.829   7.928   0.810 -0.5160  0.4907 -1.0158
 1583SOL     OW14581   4.875   3.342   3.600 -0.0628  0.5524  0.3748
 1583SOL    HW114582   4.874   3.380   3.507 -0.2242  0.4534  0.3349
 1583SOL    HW214583   4.888   3.415   3.666  2.1623  0.3792  0.1560
 1585SOL     OW14584   8.262   3.610   2.659 -1.0407 -0.5792 -0.1166
 1585SOL    HW114585   8.219   3.698   2.637 -0.0068 -0.6832 -2.6892
 1585SOL    HW214586   8.362   3.621   2.657 -0.9097 -1.8758 -0.7857
 1587SOL     OW14587   8.766   0.669   1.036  0.0085  0.4775  0.7416
 1587SOL    HW114588   8.692   0.606   1.011 -0.6958  1.2242  0.9380
 1587SOL    HW214589   8.841   0.617   1.078  0.8491 -0.7169 -2.0510
 1588SOL     OW14590   3.475   8.052   4.246  0.4355  0.1390  0.4851
 1588SOL    HW114591   3.542   7.978   4.252  0.1569  0.0424  2.6588
 1588SOL    HW214592   3.389   8.015   4.212  0.6365 -0.3079  0.4474
 1589SOL     OW14593   4.301   6.713   2.080 -0.1442  0.0450 -0.5835
 1589SOL    HW114594   4.264   6.633   2.031  0.2266 -1.8428  2.1313
 1589SOL    HW214595   4.393   6.733   2.045  0.3623 -1.6498 -0.2990
 1591SOL     OW14596   8.389   1.984   3.933 -0.1635  0.4177  0.4760
 1591SOL    HW114597   8.420   2.079   3.931 -0.0321  0.4138  1.6044
 1591SOL    HW214598   8.290   1.980   3.920 -0.1264  0.6803  0.1075
 1592SOL     OW14599   1.366   8.804   0.760 -0.2391  0.4341 -0.1883
 1592SOL    HW114600   1.376   8.720   0.813  0.6318  0.7546  0.1645
 1592SOL    HW214601   1.452   8.825   0.713 -1.9338 -1.6344 -4.4251
 1593SOL     OW14602   0.905   8.998   1.429  0.1620 -0.2896  0.1355
 1593SOL    HW114603   0.824   9.056   1.430  0.7343  0.5127  0.4123
 1593SOL    HW214604   0.898   8.931   1.354  0.4482  1.5218 -1.5454
 1594SOL     OW14605   7.773   8.361   3.386 -0.2476  0.4146  0.8415
 1594SOL    HW114606   7.684   8.379   3.342 -0.2154 -0.4514  0.3936
 1594SOL    HW214607   7.772   8.395   3.480 -1.0811  0.3490  0.8591
 1595SOL     OW14608   6.843   1.228   2.388  0.2726  0.5282 -0.5613
 1595SOL    HW114609   6.854   1.282   2.472  2.0521 -0.0559 -0.3984
 1595SOL    HW214610   6.807   1.138   2.412  1.2003  0.2021 -0.3487
 1596SOL     OW14611   8.381   6.016   1.536 -0.7929 -0.0388 -0.2637
 1596SOL    HW114612   8.379   5.916   1.536 -1.0671 -0.0432  1.8504
 1596SOL    HW214613   8.296   6.051   1.575  0.1926  0.9935  0.9741
 1597SOL     OW14614   3.201   4.097   2.772  0.0668  0.3971 -0.5933
 1597SOL    HW114615   3.126   4.037   2.802  0.6843 -0.4924 -0.8085
 1597SOL    HW214616   3.222   4.078   2.676  1.5691 -0.4026 -0.1122
 1599SOL     OW14617   0.080   5.589   4.124 -0.9092  0.4990  0.4550
 1599SOL    HW114618   0.105   5.522   4.195  0.8867  0.9366  0.2678
 1599SOL    HW214619   0.089   5.546   4.034 -1.7092  0.4000  0.4201
 1600SOL     OW14620   2.891   1.277   0.354  0.2199 -0.0082 -0.0390
 1600SOL    HW114621   2.985   1.279   0.387  0.1437  1.0720  0.1056
 1600SOL    HW214622   2.891   1.259   0.255  0.7675  3.5465 -0.7509
 1601SOL     OW14623   6.613   7.744   3.372  0.1019 -0.6177  0.4845
 1601SOL    HW114624   6.574   7.682   3.440  0.8183 -2.0922 -0.4408
 1601SOL    HW214625   6.705   7.715   3.348  0.2719  0.5364 -0.3250
 1603SOL     OW14626   3.049   0.386   2.803  0.1710  0.2255  0.0130
 1603SOL    HW114627   3.099   0.359   2.885  0.6991  0.2184 -0.3107
 1603SOL    HW214628   3.056   0.485   2.790  0.0332  0.2353  0.0118
 1604SOL     OW14629   0.933   0.248   0.202 -0.6031 -0.2652  0.1776
 1604SOL    HW114630   0.873   0.173   0.229 -0.3366 -0.9179 -0.9961
 1604SOL    HW214631   0.900   0.287   0.116 -0.0609  0.1877  0.1760
 1605SOL     OW14632   9.422   3.964   0.618 -0.2489 -0.1079  0.2159
 1605SOL    HW114633   9.510   3.926   0.593  0.1128  0.7212  0.2172
 1605SOL    HW214634   9.350   3.924   0.561  0.2888  0.1545 -0.6451
 1607SOL     OW14635   7.894   6.308   2.520 -0.0026  0.5064  0.0531
 1607SOL    HW114636   7.938   6.398   2.522  1.4363 -0.1787  0.2091
 1607SOL    HW214637   7.950   6.243   2.570 -1.5133 -0.2829  0.7486
 1608SOL     OW14638   2.620   1.911   1.455  0.3073 -0.1888  0.0988
 1608SOL    HW114639   2.616   1.972   1.376  0.7868 -3.1228 -2.2538
 1608SOL    HW214640   2.710   1.920   1.499  0.3019  0.9212 -0.1075
 1609SOL     OW14641   8.641   0.633   2.735 -0.6400 -0.4165 -0.2852
 1609SOL    HW114642   8.670   0.537   2.738  0.1994 -0.2031 -1.3632
 1609SOL    HW214643   8.684   0.679   2.658  0.0677  1.1943  1.0340
 1610SOL     OW14644   9.371   6.506   4.151 -0.3177  0.0009  0.2489
 1610SOL    HW114645   9.333   6.458   4.230 -0.0026 -0.1364  0.3167
 1610SOL    HW214646   9.450   6.560   4.179 -0.1359 -0.1378  0.0026
 1611SOL     OW14647   0.170   3.120   1.099 -0.2361 -0.4574  0.1468
 1611SOL    HW114648   0.179   3.024   1.073  0.0597 -0.0220 -1.3943
 1611SOL    HW214649   0.076   3.150   1.081 -0.1856 -0.3167  0.1180
 1612SOL     OW14650   0.206   0.665   3.975 -0.3852  0.2310 -0.3360
 1612SOL    HW114651   0.243   0.720   3.900 -1.6846 -0.2707 -1.3635
 1612SOL    HW214652   0.254   0.577   3.979 -0.0225  0.4294 -0.2939
 1613SOL     OW14653   7.473   4.464   0.188 -0.1492  0.5128  0.0608
 1613SOL    HW114654   7.456   4.553   0.146  2.3693  0.7694 -0.4938
 1613SOL    HW214655   7.543   4.473   0.259 -0.7361 -0.8099  0.8210
 1615SOL     OW14656   9.004   9.299   3.974 -0.2859 -0.4060 -0.5760
 1615SOL    HW114657   8.983   9.381   4.027  0.1174 -1.0721  0.6408
 1615SOL    HW214658   9.074   9.320   3.906 -0.9997  0.5215 -1.0344
 1616SOL     OW14659   8.522   2.457   1.950  0.2066  0.8758  0.2847
 1616SOL    HW114660   8.508   2.361   1.975  1.1735  0.1365 -1.9430
 1616SOL    HW214661   8.437   2.495   1.914  0.5629  0.0397 -1.4544
 1617SOL     OW14662   6.683   7.252   2.172  0.0229  0.5819  0.3351
 1617SOL    HW114663   6.658   7.232   2.077 -1.5599 -0.8636  1.0498
 1617SOL    HW214664   6.643   7.340   2.198 -1.5999 -0.1563  0.4128
 1618SOL     OW14665   3.316   8.186   3.993  0.2340 -0.0407  0.1839
 1618SOL    HW114666   3.403   8.235   3.988  0.2441 -0.0495  0.2742
 1618SOL    HW214667   3.246   8.239   3.946  0.3209 -0.1038 -0.0190
 1619SOL     OW14668   8.235   5.506   3.009  0.2627 -0.2924  0.1053
 1619SOL    HW114669   8.328   5.495   3.046  1.0852  1.8691 -1.2304
 1619SOL    HW214670   8.183   5.567   3.069  0.2438 -0.1985 -0.0061
 1620SOL     OW14671   7.860   8.624   1.709 -0.0359  0.4603 -0.1246
 1620SOL    HW114672   7.917   8.662   1.782 -0.7021 -1.3615  1.3782
 1620SOL    HW214673   7.919   8.580   1.641  0.4737  0.5735  0.2375
 1621SOL     OW14674   8.559   3.503   0.609  0.2550  0.1113  0.4830
 1621SOL    HW114675   8.503   3.537   0.684 -0.3962 -1.8300  0.9127
 1621SOL    HW214676   8.627   3.438   0.645  0.5699 -0.1078 -0.4796
 1622SOL     OW14677   5.152   4.224   0.637  0.1331 -0.1219 -0.1433
 1622SOL    HW114678   5.083   4.161   0.603  0.0545 -0.8618  1.3248
 1622SOL    HW214679   5.215   4.175   0.697  1.5854  0.6784 -1.0108
 1625SOL     OW14680   8.054   0.471   3.458 -0.0892  0.1804 -0.8737
 1625SOL    HW114681   8.116   0.396   3.479 -0.5043 -0.2293 -1.1010
 1625SOL    HW214682   8.104   0.543   3.410  0.2397 -0.0782 -0.9213
 1626SOL     OW14683   9.423   4.345   3.577 -0.1692  0.1052 -0.4866
 1626SOL    HW114684   9.436   4.250   3.605 -0.9555 -0.5599 -2.2955
 1626SOL    HW214685   9.412   4.402   3.658  0.6439 -1.2871  0.6341
 1627SOL     OW14686   8.247   3.439   4.352  0.0090  0.2057 -0.3687
 1627SOL    HW114687   8.252   3.529   4.397  0.7953 -0.4429  0.8661
 1627SOL    HW214688   8.153   3.404   4.360  0.1806  0.0021  1.0066
 1628SOL     OW14689   0.822   6.806   2.521 -0.6906 -0.0247  0.2657
 1628SOL    HW114690   0.792   6.741   2.590 -0.1327 -2.6198 -1.8355
 1628SOL    HW214691   0.761   6.884   2.519 -0.4558  0.3012  3.9435
 1630SOL     OW14692   5.354   7.292   1.626 -0.3144 -0.3704 -0.0882
 1630SOL    HW114693   5.449   7.262   1.628 -0.3345 -0.3712  1.7457
 1630SOL    HW214694   5.329   7.331   1.715 -1.8120  0.3083 -0.7810
 1631SOL     OW14695   1.263   7.389   2.627 -0.3217 -0.2036  0.5868
 1631SOL    HW114696   1.203   7.339   2.565 -0.9904 -0.6892  1.6136
 1631SOL    HW214697   1.273   7.337   2.713  0.9302  0.2473  0.7275
 1632SOL     OW14698   3.726   9.058   2.762 -0.4127  0.3084 -0.8223
 1632SOL    HW114699   3.728   8.958   2.763 -0.9584  0.2895  1.6196
 1632SOL    HW214700   3.662   9.090   2.692  1.0121 -1.0064 -2.7620
 1633SOL     OW14701   2.876   3.259   0.632  0.4113  0.5992  0.0736
 1633SOL    HW114702   2.787   3.230   0.666  1.4999 -0.1722  2.4014
 1633SOL    HW214703   2.886   3.234   0.536 -0.5449 -2.4386  0.7400
 1634SOL     OW14704   8.685   9.659   2.898  0.1511  0.4183  0.1887
 1634SOL    HW114705   8.745   9.736   2.874 -1.1449  1.9171  1.5863
 1634SOL    HW214706   8.704   9.631   2.992  1.8799 -2.2286 -0.8966
 1635SOL     OW14707   8.005   9.128   4.243 -0.3358  0.3533 -0.0788
 1635SOL    HW114708   7.953   9.080   4.314 -1.2859  0.2861 -0.8037
 1635SOL    HW214709   7.947   9.141   4.162  0.0629  2.2794 -0.0758
 1636SOL     OW14710   1.013   5.647   1.817  0.0543 -0.0049  0.6250
 1636SOL    HW114711   0.954   5.580   1.770 -0.6786 -0.1163  1.6843
 1636SOL    HW214712   0.967   5.736   1.819  0.2581  0.0971  0.7889
 1637SOL     OW14713   3.059   8.895   1.586 -0.5334  0.6040  0.3070
 1637SOL    HW114714   3.104   8.912   1.674 -0.4540  1.9178  0.0310
 1637SOL    HW214715   3.007   8.977   1.560 -0.6736  0.1625 -0.8019
 1638SOL     OW14716   0.756   2.393   2.776  0.2354 -0.0207  0.0293
 1638SOL    HW114717   0.711   2.467   2.726  0.0966 -0.7386 -0.9179
 1638SOL    HW214718   0.787   2.427   2.864  1.5224  1.5772 -1.0182
 1639SOL     OW14719   3.288   7.646   1.059  0.1064  0.4912  0.0709
 1639SOL    HW114720   3.219   7.715   1.040  0.3373  0.1935 -1.9260
 1639SOL    HW214721   3.313   7.599   0.975 -0.2490 -2.2387  1.4140
 1640SOL     OW14722   5.292   4.077   2.303 -0.1554 -0.1768  0.0778
 1640SOL    HW114723   5.261   4.068   2.209  1.0124 -2.3024 -0.1474
 1640SOL    HW214724   5.215   4.066   2.365 -1.2208  2.8495 -0.6175
 1641SOL     OW14725   0.611   2.125   4.212 -0.2420  0.0734 -0.3446
 1641SOL    HW114726   0.581   2.069   4.290  0.1572  0.2050 -0.0935
 1641SOL    HW214727   0.545   2.116   4.137 -1.7770  1.6455  0.7736
 1642SOL     OW14728   8.814   9.588   1.844 -0.2267  0.4045  0.2366
 1642SOL    HW114729   8.905   9.572   1.883 -0.7742 -0.7292  1.0656
 1642SOL    HW214730   8.823   9.621   1.750  1.0232 -0.5038  0.0328
 1643SOL     OW14731   5.041   0.349   1.918  0.0612  0.1145  0.2092
 1643SOL    HW114732   5.070   0.272   1.974 -1.7205 -0.5180  0.2992
 1643SOL    HW214733   5.086   0.345   1.829  0.9356 -0.3199  0.6730
 1644SOL     OW14734   1.115   2.883   0.608 -0.1385  0.1108 -0.2138
 1644SOL    HW114735   1.182   2.913   0.676  1.4274 -2.8534 -0.3378
 1644SOL    HW214736   1.144   2.913   0.518  0.5698 -0.3830 -0.1585
 1646SOL     OW14737   9.980   6.438   2.938 -0.1408  0.1412  0.0438
 1646SOL    HW114738   9.940   6.367   2.880  0.5300  0.5766 -0.9719
 1646SOL    HW214739  10.009   6.515   2.881 -0.3355  0.9853  1.0701
 1647SOL     OW14740   7.542   9.109   1.556 -1.0298 -0.4440 -0.0259
 1647SOL    HW114741   7.587   9.021   1.572 -1.2368 -0.6295 -0.4628
 1647SOL    HW214742   7.461   9.095   1.499 -1.5707 -0.0988  0.6541
 1649SOL     OW14743   7.340   0.740   2.675  0.7252  0.6584  0.4915
 1649SOL    HW114744   7.390   0.755   2.590  0.9565 -0.5270  0.4147
 1649SOL    HW214745   7.242   0.738   2.657  0.8159 -0.5517  0.0984
 1651SOL     OW14746   7.027   7.223   3.397  1.1288 -0.0873 -0.0337
 1651SOL    HW114747   7.078   7.309   3.410 -2.1045  1.8949  0.1481
 1651SOL    HW214748   7.006   7.183   3.486  0.3656  0.3535 -0.0098
 1652SOL     OW14749   8.730   8.223   1.307  0.0491  0.0293 -0.1470
 1652SOL    HW114750   8.719   8.126   1.329 -0.6471  0.0354 -0.4573
 1652SOL    HW214751   8.655   8.253   1.247  0.6232  0.5926 -0.5955
 1653SOL     OW14752   2.292   8.521   3.427 -0.1462  0.2313  0.2894
 1653SOL    HW114753   2.233   8.602   3.422  0.9922  1.0106 -0.6535
 1653SOL    HW214754   2.382   8.543   3.391  0.2030 -1.4437  0.1109
 1654SOL     OW14755   7.855   9.521   1.077  0.0382 -0.1049  0.1690
 1654SOL    HW114756   7.905   9.457   1.134 -1.8468 -0.6149  1.2813
 1654SOL    HW214757   7.795   9.471   1.014 -0.5679  0.5273  0.2328
 1655SOL     OW14758   0.531   9.141   1.695 -0.0483 -0.2193  0.1121
 1655SOL    HW114759   0.558   9.050   1.665 -0.3083 -0.8343  1.6891
 1655SOL    HW214760   0.431   9.149   1.693 -0.1037 -0.4945  1.4162
 1659SOL     OW14761   9.937   3.086   1.695 -0.0166  0.1614  0.5633
 1659SOL    HW114762   9.984   3.026   1.761  0.2272  0.3442  0.5593
 1659SOL    HW214763   9.934   3.041   1.606 -1.2790 -0.5318  0.9470
 1660SOL     OW14764   5.532   7.013   1.851  0.2646  0.5299  0.4619
 1660SOL    HW114765   5.516   6.971   1.941 -0.8974  0.3234  0.1756
 1660SOL    HW214766   5.508   6.947   1.779 -2.2079  1.8521  0.0015
 1661SOL     OW14767   7.776   2.549   2.681  0.3903  0.4767 -0.0356
 1661SOL    HW114768   7.862   2.598   2.667  0.1159  1.7146  2.2645
 1661SOL    HW214769   7.700   2.604   2.647  0.0450  1.9316  2.9074
 1662SOL     OW14770   9.288   8.641   0.688 -0.0375  0.0596 -0.1260
 1662SOL    HW114771   9.289   8.596   0.777 -0.1805  0.0021 -0.1529
 1662SOL    HW214772   9.267   8.738   0.699 -0.4867 -0.0356 -0.1357
 1664SOL     OW14773   1.335   5.021   2.005  0.0935 -0.3192  0.2702
 1664SOL    HW114774   1.296   5.113   1.998 -3.9024 -1.9915 -0.7336
 1664SOL    HW214775   1.350   4.999   2.102 -1.6251  0.3589  0.7161
 1665SOL     OW14776   8.789   6.840   2.397  0.2498  0.4166 -0.4741
 1665SOL    HW114777   8.787   6.904   2.320  1.9499  0.0299 -0.8498
 1665SOL    HW214778   8.872   6.854   2.450 -0.7671  0.4805  1.1423
 1667SOL     OW14779   3.684   0.921   0.738 -0.1731  0.1287 -0.8728
 1667SOL    HW114780   3.691   0.936   0.837 -2.3589  0.1922 -0.7027
 1667SOL    HW214781   3.708   0.827   0.716  1.5748  0.4631 -0.4429
 1668SOL     OW14782   1.400   2.372   3.452 -0.3901 -0.3852 -0.3834
 1668SOL    HW114783   1.427   2.315   3.375  0.2316  0.0784 -0.5101
 1668SOL    HW214784   1.478   2.425   3.484 -0.9403  0.3297 -0.2038
 1670SOL     OW14785   3.314   8.091   1.864  0.2037 -0.2161  0.1828
 1670SOL    HW114786   3.278   8.048   1.947  0.2024  0.1416  0.3683
 1670SOL    HW214787   3.257   8.169   1.839  0.3450 -0.1778 -0.0184
 1671SOL     OW14788   3.297   2.790   0.877 -0.0397  0.2898  0.2715
 1671SOL    HW114789   3.296   2.746   0.967 -0.2109 -2.3233 -0.9477
 1671SOL    HW214790   3.383   2.840   0.865  0.0198  0.5825  1.8410
 1672SOL     OW14791   6.661   1.020   2.024 -0.2229  0.3042 -0.6432
 1672SOL    HW114792   6.591   1.091   2.034 -1.2690 -0.6924 -0.8504
 1672SOL    HW214793   6.751   1.063   2.022 -0.9131  1.7509 -2.0227
 1674SOL     OW14794   8.824   7.601   3.813 -0.0023  0.0976  0.1370
 1674SOL    HW114795   8.899   7.537   3.796 -0.4690 -0.3772 -0.1286
 1674SOL    HW214796   8.758   7.596   3.738 -0.1984  0.6653  0.2671
 1676SOL     OW14797   4.057   1.632   1.089 -0.2182 -0.1364  0.4944
 1676SOL    HW114798   4.016   1.556   1.039 -0.1453  0.0812  0.0954
 1676SOL    HW214799   4.103   1.598   1.171 -1.0170 -0.4015  0.8333
 1677SOL     OW14800   2.548   1.431   4.367 -1.0215  0.0876  0.4537
 1677SOL    HW114801   2.482   1.477   4.309 -0.2464  1.6090  0.7674
 1677SOL    HW214802   2.529   1.451   4.463 -0.0435  0.6051  0.5395
 1678SOL     OW14803   1.479   4.126   1.901 -0.1101 -0.0204  0.1666
 1678SOL    HW114804   1.520   4.095   1.815 -0.0716 -1.8159  0.8163
 1678SOL    HW214805   1.429   4.211   1.884  1.6033  0.7591 -1.1941
 1679SOL     OW14806   8.611   3.741   1.192 -0.2350 -0.3348  0.2802
 1679SOL    HW114807   8.652   3.733   1.101  1.6264  0.3588  1.0403
 1679SOL    HW214808   8.671   3.795   1.251 -2.0093  0.2507  1.5817
 1680SOL     OW14809   5.659   7.964   3.218  0.6600 -0.1826  1.0836
 1680SOL    HW114810   5.676   8.026   3.142  0.3210 -0.6404  0.6329
 1680SOL    HW214811   5.694   8.004   3.302  0.9732  0.3545  0.6975
 1681SOL     OW14812   2.620   3.158   0.688  0.0250  0.6844 -0.1548
 1681SOL    HW114813   2.540   3.158   0.747 -0.4415  0.4272 -0.7822
 1681SOL    HW214814   2.603   3.215   0.608  0.4227  0.5345 -0.3504
 1683SOL     OW14815   7.852   2.493   2.048  0.1929 -0.7325  0.4286
 1683SOL    HW114816   7.842   2.438   1.965  1.5207 -2.6252  1.4610
 1683SOL    HW214817   7.906   2.574   2.028  2.3977 -2.2802 -0.1404
 1684SOL     OW14818   8.652   2.020   3.553 -0.4388  0.1620  0.3984
 1684SOL    HW114819   8.651   1.933   3.504  1.7494 -0.0171  0.6494
 1684SOL    HW214820   8.633   2.094   3.488 -0.9265 -0.3616 -0.0726
 1687SOL     OW14821   0.996   2.702   1.024 -0.1908 -0.4166  0.3444
 1687SOL    HW114822   1.057   2.744   1.091 -1.7200  0.2525  1.3550
 1687SOL    HW214823   0.916   2.761   1.010  0.9087  0.2938 -3.4038
 1688SOL     OW14824   7.560   9.831   0.355 -0.1864 -0.5903 -0.3115
 1688SOL    HW114825   7.630   9.821   0.427 -0.4013  0.2723  0.0186
 1688SOL    HW214826   7.599   9.804   0.267  0.8499  0.7784 -0.2849
 1689SOL     OW14827   6.344   6.994   3.824 -0.7901 -0.3290 -0.5006
 1689SOL    HW114828   6.272   6.927   3.846  0.6461 -1.9738 -0.6917
 1689SOL    HW214829   6.371   6.983   3.729 -0.3765  0.3862 -0.4669
 1691SOL     OW14830   0.368   9.168   0.268 -0.2061  0.1332 -0.1877
 1691SOL    HW114831   0.372   9.181   0.367 -1.1860 -0.4556 -0.0629
 1691SOL    HW214832   0.282   9.207   0.233  0.6051  1.2725 -0.9550
 1692SOL     OW14833   9.846   9.682   2.116  0.2489  0.8769 -0.2579
 1692SOL    HW114834   9.828   9.691   2.214  0.8860  0.7317 -0.1271
 1692SOL    HW214835   9.885   9.767   2.081  0.2089  0.8589 -0.3458
 1694SOL     OW14836   2.511   9.733   0.950 -0.2098 -0.1666  0.1588
 1694SOL    HW114837   2.421   9.745   0.991 -0.6412 -0.1228 -0.7915
 1694SOL    HW214838   2.502   9.688   0.862  0.7802 -0.9828  0.4600
 1695SOL     OW14839   3.335   5.603   0.889 -0.4898 -0.1352  0.2101
 1695SOL    HW114840   3.242   5.641   0.895 -1.2028 -1.7179 -0.4177
 1695SOL    HW214841   3.353   5.548   0.971 -0.9962 -1.7060 -0.7004
 1696SOL     OW14842   2.989   9.328   1.693 -0.1698  0.6486 -0.0414
 1696SOL    HW114843   2.896   9.293   1.709 -0.0031 -1.1223 -2.5711
 1696SOL    HW214844   3.043   9.319   1.777 -1.8099  0.1211  0.9871
 1697SOL     OW14845   4.992   0.543   0.548 -0.1660  0.0357 -0.9469
 1697SOL    HW114846   5.005   0.603   0.469 -0.6129  0.2660 -0.8502
 1697SOL    HW214847   4.915   0.482   0.530  0.1100 -0.3187 -0.9304
 1698SOL     OW14848   2.352   6.598   0.690  0.2515  0.1578  0.8403
 1698SOL    HW114849   2.421   6.641   0.749  0.4031 -0.0318  0.7993
 1698SOL    HW214850   2.381   6.606   0.594  0.9937 -1.3320  0.9293
 1699SOL     OW14851   9.004   0.059   0.571 -0.5748  0.2942  0.6022
 1699SOL    HW114852   9.045  -0.032   0.576 -1.0566  0.0895  0.8868
 1699SOL    HW214853   8.999   0.098   0.663 -0.3319  0.6263  0.4757
 1700SOL     OW14854   4.998   7.592   4.139  0.0959 -0.0574  0.0063
 1700SOL    HW114855   4.986   7.557   4.232 -0.0855 -0.8119 -0.2915
 1700SOL    HW214856   4.951   7.679   4.129 -0.7122 -0.4486  0.3416
 1702SOL     OW14857   2.853   2.063   0.652 -0.0474 -0.0844  0.6568
 1702SOL    HW114858   2.770   2.090   0.701 -0.3934  1.3684 -0.6862
 1702SOL    HW214859   2.861   2.117   0.568  1.0197 -1.8746 -0.4218
 1703SOL     OW14860   1.201   4.332   2.990 -0.2638  0.1906  0.3027
 1703SOL    HW114861   1.134   4.259   2.980  0.9867 -0.6008 -2.9517
 1703SOL    HW214862   1.291   4.299   2.961  0.5466  2.6925 -0.1377
 1705SOL     OW14863   8.850   7.985   2.802 -0.5833 -0.1212 -0.4566
 1705SOL    HW114864   8.831   7.892   2.772  1.6567 -1.0327  0.8459
 1705SOL    HW214865   8.814   7.998   2.895 -0.3963  0.1445 -0.4199
 1706SOL     OW14866   2.539   9.126   2.183  0.4277  0.3200 -0.4281
 1706SOL    HW114867   2.565   9.056   2.117 -2.2390 -1.1328 -0.0193
 1706SOL    HW214868   2.586   9.110   2.269  1.1128  0.0228 -0.8559
 1707SOL     OW14869   4.095   2.863   3.538  0.1241  0.2068  0.5099
 1707SOL    HW114870   4.066   2.836   3.629 -0.4621 -0.0311  0.2508
 1707SOL    HW214871   4.177   2.920   3.545  0.1575  0.0785  1.1737
 1709SOL     OW14872   1.626   4.637   2.659 -0.6496 -0.1271  0.1409
 1709SOL    HW114873   1.603   4.555   2.710  0.1556 -1.7398 -1.9942
 1709SOL    HW214874   1.543   4.678   2.622 -1.1615  0.6602  2.1320
 1710SOL     OW14875   6.864   1.325   3.568  0.0857 -0.1367 -0.2339
 1710SOL    HW114876   6.813   1.249   3.608 -0.6921  1.1077  1.2283
 1710SOL    HW214877   6.803   1.404   3.559  0.9070  0.3531 -1.6140
 1711SOL     OW14878   7.703   8.947   3.545 -0.1741  0.3012 -0.9100
 1711SOL    HW114879   7.722   8.989   3.457  0.0546  0.2053 -0.9066
 1711SOL    HW214880   7.767   8.872   3.561 -2.1656 -1.7204 -2.0510
 1712SOL     OW14881   9.744   1.141   4.176  0.2451 -0.3137  0.1856
 1712SOL    HW114882   9.690   1.150   4.259  0.7376  0.4173  0.4336
 1712SOL    HW214883   9.706   1.068   4.119 -0.0207 -0.8899  1.0993
 1713SOL     OW14884   0.153   3.516   1.742 -0.1929 -0.0902  0.3980
 1713SOL    HW114885   0.253   3.524   1.743 -0.2234  0.3550 -0.0759
 1713SOL    HW214886   0.120   3.518   1.648 -0.6088 -0.8093  0.5195
 1714SOL     OW14887   3.713   7.858   3.276 -0.3932 -0.0895  0.0666
 1714SOL    HW114888   3.693   7.925   3.204  0.8528  2.2323  1.8487
 1714SOL    HW214889   3.798   7.810   3.254  1.3393  2.4132  1.2508
 1716SOL     OW14890   4.122   2.198   3.725 -0.3846  0.6507  0.0105
 1716SOL    HW114891   4.128   2.150   3.637  2.5544  1.2626 -0.1700
 1716SOL    HW214892   4.151   2.293   3.712 -1.3178  1.1395  1.3857
 1717SOL     OW14893   0.300   1.962   0.105  0.2732  0.0755 -0.3980
 1717SOL    HW114894   0.251   2.004   0.181  1.3763  0.1641  0.2802
 1717SOL    HW214895   0.398   1.960   0.126  0.3338 -2.1051 -0.7460
 1718SOL     OW14896   7.063   1.023   0.077  0.4281 -0.0205  0.2235
 1718SOL    HW114897   7.126   0.954   0.114  0.0076 -0.7651 -0.4287
 1718SOL    HW214898   7.082   1.036  -0.020 -1.0509 -0.9622 -0.2115
 1720SOL     OW14899   1.103   8.497   1.876 -0.7893  0.0572 -0.5419
 1720SOL    HW114900   1.098   8.566   1.803 -0.1793 -0.7773 -1.3970
 1720SOL    HW214901   1.088   8.540   1.964 -0.0474  1.3488 -1.0344
 1721SOL     OW14902   5.952   1.458   2.114 -0.7831  0.3905 -0.1635
 1721SOL    HW114903   5.887   1.417   2.178  1.1199 -0.2401  1.4296
 1721SOL    HW214904   6.007   1.526   2.163  0.2683  0.3683 -1.3043
 1722SOL     OW14905   6.637   9.288   1.965 -0.1098 -0.2019 -0.1516
 1722SOL    HW114906   6.614   9.194   1.990 -0.6162  0.3308  1.4215
 1722SOL    HW214907   6.558   9.332   1.922  0.3793 -0.7401 -1.6138
 1723SOL     OW14908   8.136   4.184   0.527  0.0720 -0.3600  0.0892
 1723SOL    HW114909   8.150   4.239   0.609 -0.8814 -0.1547  0.1264
 1723SOL    HW214910   8.131   4.087   0.552  1.2097 -0.4232  0.0914
 1724SOL     OW14911   8.462   0.572   3.104 -0.3126 -0.0931  0.4924
 1724SOL    HW114912   8.364   0.589   3.120 -0.3740  0.6272 -0.6720
 1724SOL    HW214913   8.476   0.473   3.095 -0.5617 -0.4177  3.0238
 1725SOL     OW14914   8.888   4.743   0.887 -0.5947  0.1695  0.1905
 1725SOL    HW114915   8.826   4.821   0.884 -1.9492 -0.8287  1.7526
 1725SOL    HW214916   8.932   4.738   0.976  0.5540 -0.0450 -0.3773
 1726SOL     OW14917   9.698   7.543   4.237  0.0599 -0.2300 -0.0678
 1726SOL    HW114918   9.689   7.447   4.264 -0.5462 -0.4044 -0.8871
 1726SOL    HW214919   9.743   7.548   4.148  0.6774  0.2840  0.2627
 1727SOL     OW14920   3.154   8.839   2.278 -0.2283 -0.1727  0.1847
 1727SOL    HW114921   3.180   8.935   2.270  1.2572 -0.6104 -0.5241
 1727SOL    HW214922   3.150   8.799   2.187 -0.5821 -0.8448  0.4969
 1728SOL     OW14923   9.965   2.649   2.677 -0.2859  0.3137 -0.2748
 1728SOL    HW114924   9.994   2.633   2.583 -0.0651  0.2821 -0.2018
 1728SOL    HW214925   9.973   2.564   2.729 -0.8991  0.2064 -0.3579
 1729SOL     OW14926   8.900   2.780   1.913  0.1954  0.3289 -0.0909
 1729SOL    HW114927   8.972   2.714   1.891 -0.1265 -0.3765  0.9079
 1729SOL    HW214928   8.923   2.827   1.999  0.9956  2.3828 -1.3950
 1731SOL     OW14929   8.146   2.289   4.397  0.4281  0.3420 -0.3438
 1731SOL    HW114930   8.139   2.224   4.472 -0.3874  1.4879  0.5986
 1731SOL    HW214931   8.184   2.243   4.316  0.6191 -1.0821  0.5355
 1732SOL     OW14932   1.137   7.706   1.711  0.3456  0.0527 -0.1207
 1732SOL    HW114933   1.192   7.782   1.675  0.4628 -0.4052 -0.9217
 1732SOL    HW214934   1.119   7.641   1.638 -0.8373 -0.0584  0.2580
 1733SOL     OW14935   2.521   2.271   1.550 -0.0764  0.2042  0.2600
 1733SOL    HW114936   2.609   2.223   1.545  0.6591  1.3413  1.7577
 1733SOL    HW214937   2.492   2.296   1.458  0.3865 -1.5592 -0.3846
 1735SOL     OW14938   3.048   8.187   0.048 -0.1714  0.2997  0.3656
 1735SOL    HW114939   3.080   8.262   0.106 -0.2309  2.9417 -2.8850
 1735SOL    HW214940   3.100   8.187  -0.038 -2.3085 -1.4546 -0.9700
 1736SOL     OW14941   2.875   2.794   0.521 -0.4460 -0.3154  0.5068
 1736SOL    HW114942   2.933   2.769   0.597 -0.4752 -0.5043  0.4665
 1736SOL    HW214943   2.786   2.825   0.555 -0.5870 -0.7471  0.5324
 1738SOL     OW14944   3.831   4.229   2.052 -0.5905  0.0897 -0.1177
 1738SOL    HW114945   3.737   4.209   2.080 -0.4612 -0.9396 -0.4065
 1738SOL    HW214946   3.889   4.150   2.072  0.1160  0.5269 -0.4208
 1739SOL     OW14947   0.358   8.903   3.205  0.4516 -0.0466 -0.0815
 1739SOL    HW114948   0.316   8.825   3.251  0.5922  0.2592  0.5683
 1739SOL    HW214949   0.458   8.894   3.208  0.4685  0.1961  0.0476
 1740SOL     OW14950   4.385   8.665   3.934 -0.0260 -0.1159 -0.5251
 1740SOL    HW114951   4.484   8.667   3.915 -0.0924 -0.3222 -0.9082
 1740SOL    HW214952   4.341   8.739   3.883 -0.2897 -1.0502 -1.6937
 1741SOL     OW14953   3.870   1.864   2.591  0.3243 -0.0928  0.0831
 1741SOL    HW114954   3.787   1.905   2.553 -0.4793 -0.6167  1.2401
 1741SOL    HW214955   3.863   1.765   2.587  0.8512 -0.1400  0.2861
 1743SOL     OW14956   8.778   6.384   2.360  0.0226  0.0037 -0.2868
 1743SOL    HW114957   8.779   6.483   2.347  0.1044 -0.0727 -0.9177
 1743SOL    HW214958   8.768   6.362   2.457  1.5788  0.6488  0.0452
 1745SOL     OW14959   9.946   4.319   2.390 -0.3924  0.1771  0.0896
 1745SOL    HW114960   9.988   4.308   2.300 -0.3902  0.6270  0.0348
 1745SOL    HW214961   9.964   4.238   2.445 -1.1403 -0.4685 -0.6151
 1746SOL     OW14962   9.559   9.178   2.347  0.0903  0.1629 -0.0167
 1746SOL    HW114963   9.624   9.135   2.285  1.0361 -1.0148  1.7473
 1746SOL    HW214964   9.501   9.242   2.296  0.9059 -0.6997 -2.0651
 1747SOL     OW14965   9.596   4.702   2.204 -0.4211  0.4334 -0.1508
 1747SOL    HW114966   9.657   4.647   2.260 -0.6043  1.7013  1.3218
 1747SOL    HW214967   9.510   4.653   2.189 -0.2566 -0.0319  0.4473
 1748SOL     OW14968   3.477   4.866   0.571 -0.5198  0.2985  0.4023
 1748SOL    HW114969   3.553   4.832   0.627 -0.8541  0.3801  0.9037
 1748SOL    HW214970   3.416   4.790   0.547 -0.7458  0.3828  0.7166
 1750SOL     OW14971   3.765   8.195   3.237 -0.1746 -0.2131 -0.3078
 1750SOL    HW114972   3.835   8.207   3.166 -1.7983  0.9407 -1.7479
 1750SOL    HW214973   3.693   8.135   3.203 -2.1247  2.1885 -0.5346
 1752SOL     OW14974   2.229   8.525   0.829  0.3857 -0.4204  0.0362
 1752SOL    HW114975   2.195   8.509   0.736  2.2485  1.5066 -1.0277
 1752SOL    HW214976   2.155   8.508   0.895 -0.9347 -1.9107 -1.7685
 1753SOL     OW14977   3.849   7.599   2.126 -0.4074  0.6820 -0.0892
 1753SOL    HW114978   3.792   7.644   2.057  0.9761  1.4547 -0.7624
 1753SOL    HW214979   3.872   7.664   2.198  0.1155  0.5624 -0.1403
 1754SOL     OW14980   2.455   4.969   1.494 -0.4070 -0.4805 -0.0272
 1754SOL    HW114981   2.408   4.984   1.580  1.9177 -1.5814  1.4796
 1754SOL    HW214982   2.469   4.871   1.479  2.0845 -0.1612 -0.0077
 1755SOL     OW14983   4.278   2.345   0.494 -0.6543  0.4526  0.0431
 1755SOL    HW114984   4.205   2.297   0.445  0.5457 -0.8462 -0.5027
 1755SOL    HW214985   4.367   2.318   0.456  0.2412  0.3230  2.1690
 1757SOL     OW14986   4.944   3.259   2.142 -0.3362  0.1936  0.4915
 1757SOL    HW114987   4.991   3.324   2.083 -1.3084 -1.1691 -1.8712
 1757SOL    HW214988   4.966   3.278   2.238  1.2798  2.4554 -0.2922
 1758SOL     OW14989   0.640   1.660   2.682  0.7584  0.2932 -0.2410
 1758SOL    HW114990   0.647   1.645   2.583 -3.0828 -0.1447 -0.5440
 1758SOL    HW214991   0.682   1.747   2.707  0.2450  1.2143 -2.5265
 1760SOL     OW14992   3.645   3.555   2.760 -0.1413 -0.0572  0.1182
 1760SOL    HW114993   3.609   3.518   2.846 -0.2730  0.7323  0.4131
 1760SOL    HW214994   3.578   3.542   2.687 -1.5595  2.4763  0.9217
 1761SOL     OW14995   1.522   8.760   2.434 -0.3277 -0.2324  0.6265
 1761SOL    HW114996   1.605   8.804   2.466 -0.0914 -0.4905  0.3749
 1761SOL    HW214997   1.462   8.827   2.391  0.6421 -0.3818 -1.0165
 1762SOL     OW14998   3.549   7.060   1.764  0.3134 -0.2970  0.2706
 1762SOL    HW114999   3.525   7.087   1.671  0.9467  1.9325  0.7213
 1762SOL    HW215000   3.615   6.986   1.762  0.5142 -0.0895 -1.0645
 1764SOL     OW15001   6.970   9.883   2.460 -0.0486  0.0988 -0.0546
 1764SOL    HW115002   7.060   9.842   2.446 -0.2065  0.4245 -2.1924
 1764SOL    HW215003   6.972   9.942   2.540  1.2970 -0.8537  0.6348
 1765SOL     OW15004   8.418   9.850   1.761  0.2775 -0.4295  0.3405
 1765SOL    HW115005   8.404   9.756   1.791 -0.7681 -0.5682 -0.5334
 1765SOL    HW215006   8.503   9.886   1.800 -0.1504 -1.1744  1.9984
 1766SOL     OW15007   7.716   9.956   0.897 -0.1390 -0.5257  0.4453
 1766SOL    HW115008   7.638   9.931   0.839 -1.1551 -1.7502  2.3016
 1766SOL    HW215009   7.731   9.885   0.965  1.9111  0.2493  0.8405
 1767SOL     OW15010   5.811   1.792   2.530  0.3641 -0.3567 -0.2187
 1767SOL    HW115011   5.902   1.831   2.542  0.1840  0.3487 -1.0761
 1767SOL    HW215012   5.819   1.693   2.517  0.9454 -0.3999  0.4336
 1768SOL     OW15013   9.621   5.272   3.473 -0.3900  0.1489 -0.2408
 1768SOL    HW115014   9.551   5.203   3.493 -0.0752 -0.2024 -0.3450
 1768SOL    HW215015   9.609   5.350   3.534 -0.7585  0.0070 -0.1289
 1769SOL     OW15016   6.172   1.138   3.773 -0.1577  0.0603 -0.4962
 1769SOL    HW115017   6.255   1.169   3.728  1.5003 -0.6991  1.9111
 1769SOL    HW215018   6.131   1.214   3.824  0.1497 -0.0315 -0.1076
 1770SOL     OW15019   3.811   0.464   2.752 -0.2435 -0.3097 -0.0282
 1770SOL    HW115020   3.847   0.534   2.813 -0.0070 -1.1539  0.8059
 1770SOL    HW215021   3.720   0.436   2.783 -0.0211 -0.9191  0.0874
 1772SOL     OW15022   8.151   5.697   1.757  0.5355  0.1814  0.1034
 1772SOL    HW115023   8.231   5.656   1.801 -0.3656  0.3586  1.9541
 1772SOL    HW215024   8.070   5.680   1.814 -1.2058 -2.1621 -2.9222
 1774SOL     OW15025   0.986   3.220   1.929 -0.1140 -0.0390  0.1012
 1774SOL    HW115026   1.038   3.244   1.847 -2.0515 -2.2156 -1.8546
 1774SOL    HW215027   0.975   3.120   1.933 -1.7722  0.1861  1.9187
 1775SOL     OW15028   3.339   3.587   2.959  0.5420 -0.4641  0.3625
 1775SOL    HW115029   3.351   3.560   3.054  0.6863  0.9656  0.7520
 1775SOL    HW215030   3.364   3.683   2.947  1.1038 -0.7854 -1.2396
 1776SOL     OW15031   0.183   8.831   1.136 -0.1146  0.4127 -0.4558
 1776SOL    HW115032   0.261   8.824   1.198 -1.3430 -0.5350  1.0252
 1776SOL    HW215033   0.105   8.871   1.185 -1.2046 -0.6436 -1.3009
 1779SOL     OW15034   9.757   8.688   3.064 -0.5862 -0.1624  0.4701
 1779SOL    HW115035   9.718   8.777   3.086 -0.3637 -0.0341  0.3554
 1779SOL    HW215036   9.689   8.616   3.079 -1.1517  0.1402 -0.5566
 1781SOL     OW15037   1.116   8.284   3.104 -0.3327 -0.1446  0.6867
 1781SOL    HW115038   1.090   8.243   3.017 -0.6392  0.2456  0.5940
 1781SOL    HW215039   1.034   8.309   3.156 -0.1623 -1.0802  1.4277
 1782SOL     OW15040   3.603   0.519   0.957 -0.8107  0.5411  0.1107
 1782SOL    HW115041   3.604   0.508   0.857 -1.6410 -1.2363  0.2922
 1782SOL    HW215042   3.623   0.432   1.001 -0.3950  1.3291  1.5190
 1783SOL     OW15043   8.763   4.515   2.760  0.5548 -0.3657  0.1748
 1783SOL    HW115044   8.813   4.476   2.837  1.0182 -1.0365 -0.4642
 1783SOL    HW215045   8.688   4.455   2.733 -1.2196  1.0905  1.7421
 1784SOL     OW15046   8.409   5.596   1.834  0.1892  0.3705 -0.2449
 1784SOL    HW115047   8.490   5.542   1.855 -0.4298 -0.0021  1.2124
 1784SOL    HW215048   8.435   5.676   1.780  1.5340  0.2867  0.2771
 1785SOL     OW15049   9.638   6.885   2.108  0.1950 -0.3256  0.4428
 1785SOL    HW115050   9.591   6.807   2.068  2.6990 -1.0850 -1.1693
 1785SOL    HW215051   9.731   6.858   2.134  0.0970  1.3415  2.7028
 1786SOL     OW15052   4.272   1.598   0.257 -0.5482 -0.8404 -1.1043
 1786SOL    HW115053   4.340   1.598   0.331 -1.2129  0.2023 -0.4880
 1786SOL    HW215054   4.216   1.680   0.263 -0.1478 -0.3890 -3.2026
 1788SOL     OW15055   1.004   2.199   0.222 -0.1572 -0.5257  0.2943
 1788SOL    HW115056   0.956   2.115   0.247 -1.1523  0.0264  0.2642
 1788SOL    HW215057   0.939   2.276   0.222  0.4150 -0.0233 -1.1830
 1790SOL     OW15058   4.694   4.708   1.786 -0.5729 -0.1344 -0.1661
 1790SOL    HW115059   4.696   4.775   1.860 -2.5930 -0.2935  0.0434
 1790SOL    HW215060   4.600   4.692   1.757  0.1364 -0.7090 -2.2073
 1791SOL     OW15061   8.228   9.750   1.333  0.0943 -0.5335 -0.3106
 1791SOL    HW115062   8.261   9.771   1.425 -0.0991  1.0153 -0.5652
 1791SOL    HW215063   8.257   9.659   1.306  2.2871 -0.0436  0.3316
 1792SOL     OW15064   1.630   3.799   3.667  0.4437  0.6167  0.2498
 1792SOL    HW115065   1.617   3.735   3.742  1.0124  1.0144  0.6795
 1792SOL    HW215066   1.628   3.749   3.580 -1.2736  0.2898  0.4478
 1793SOL     OW15067   4.060   2.419   2.266  0.1039  0.3604 -0.0468
 1793SOL    HW115068   4.049   2.417   2.167  0.1014  2.2578 -0.1121
 1793SOL    HW215069   4.005   2.347   2.307  1.1157 -1.2806 -1.4925
 1795SOL     OW15070   8.357   5.116   0.007  0.0743 -0.8564 -0.2375
 1795SOL    HW115071   8.270   5.077   0.036  0.4034 -1.1552  0.3521
 1795SOL    HW215072   8.427   5.044   0.004  0.4570 -0.4939 -0.0772
 1796SOL     OW15073   9.733   9.014   2.024  0.1476  0.2130 -0.2655
 1796SOL    HW115074   9.685   9.066   1.954 -1.1049  1.2741  1.3212
 1796SOL    HW215075   9.831   9.035   2.021 -0.0088  0.8238 -1.2009
 1797SOL     OW15076   7.742   9.095   3.336 -0.1636 -0.1732 -0.1490
 1797SOL    HW115077   7.738   9.157   3.415 -0.0821  0.5257 -0.6944
 1797SOL    HW215078   7.658   9.102   3.283 -0.2804 -0.7550 -0.0505
 1798SOL     OW15079   7.360   9.812   1.920 -0.0215  0.1009  0.1869
 1798SOL    HW115080   7.357   9.763   1.833  1.5461  1.9654 -0.9596
 1798SOL    HW215081   7.267   9.841   1.945 -0.4139  0.0508 -1.1627
 1799SOL     OW15082   7.536   8.346   2.823  0.6087 -0.4886 -0.5312
 1799SOL    HW115083   7.563   8.436   2.859  0.5026 -0.5706 -0.2463
 1799SOL    HW215084   7.618   8.292   2.804  0.6873 -0.1722 -1.1169
 1800SOL     OW15085   0.749   0.611   4.124  0.0614 -0.0239 -0.2760
 1800SOL    HW115086   0.723   0.666   4.204  0.0617 -0.8607  0.3009
 1800SOL    HW215087   0.813   0.663   4.067  0.4235  0.3964  0.5056
 1801SOL     OW15088   8.352   6.349   3.650 -0.1973 -0.3202  0.1375
 1801SOL    HW115089   8.307   6.321   3.565  1.2290 -0.6430 -0.5161
 1801SOL    HW215090   8.292   6.412   3.699 -0.7421  0.4366 -1.4429
 1802SOL     OW15091   7.800   1.390   3.731 -0.1117 -0.1810 -0.1629
 1802SOL    HW115092   7.730   1.406   3.801  1.1771  1.3878  0.8155
 1802SOL    HW215093   7.758   1.393   3.641 -1.4421  0.0009  0.4487
 1803SOL     OW15094   8.843   8.775   1.467 -0.5341  0.4347 -0.3901
 1803SOL    HW115095   8.917   8.837   1.440 -0.1361  0.7611  1.3473
 1803SOL    HW215096   8.818   8.717   1.390  2.4943 -0.6623 -0.6195
 1804SOL     OW15097   2.491   2.619   1.457  0.6080 -0.0766  0.6213
 1804SOL    HW115098   2.563   2.552   1.475  0.4098 -0.7072 -0.8195
 1804SOL    HW215099   2.532   2.709   1.441  0.9276 -0.0073  1.8233
 1805SOL     OW15100   0.645   4.574   1.665 -0.0027 -0.6556 -0.2044
 1805SOL    HW115101   0.576   4.562   1.736  0.8921  0.9270  0.9825
 1805SOL    HW215102   0.725   4.516   1.686  0.8743  0.9252  0.9309
 1806SOL     OW15103   2.684   3.307   1.367  0.0366 -0.0121  0.1928
 1806SOL    HW115104   2.677   3.251   1.449  0.3905  0.3308  0.4564
 1806SOL    HW215105   2.605   3.289   1.307 -1.2416  1.1712  1.4933
 1807SOL     OW15106   3.093   9.919   2.052  0.0722 -0.4295  0.3643
 1807SOL    HW115107   3.123   9.833   2.011  1.9993  0.6067 -0.4573
 1807SOL    HW215108   3.159   9.946   2.123 -0.2585  0.6201  0.2715
 1808SOL     OW15109   1.178   0.324   3.344 -0.4592  0.3941  0.4558
 1808SOL    HW115110   1.212   0.360   3.431  0.1203  0.5519  0.1665
 1808SOL    HW215111   1.239   0.252   3.311 -0.0915  1.0537 -0.3387
 1810SOL     OW15112   9.087   7.120   1.537 -0.6677 -0.8176  0.0759
 1810SOL    HW115113   9.013   7.084   1.481 -0.8666  0.2369 -0.3599
 1810SOL    HW215114   9.141   7.186   1.484 -0.1840 -0.6351  0.7747
 1812SOL     OW15115   0.095   7.077   1.182  0.0288 -0.2534  0.5114
 1812SOL    HW115116   0.138   7.055   1.095 -0.5432  0.6528 -0.0146
 1812SOL    HW215117   0.153   7.142   1.232 -1.0366  1.5132 -0.5081
 1814SOL     OW15118   9.950   5.100   4.225 -0.1066 -0.0669  0.3553
 1814SOL    HW115119  10.005   5.047   4.289 -1.0622  0.1236  1.3439
 1814SOL    HW215120  10.002   5.180   4.194  1.7003 -2.0336 -1.8673
 1815SOL     OW15121   3.967   0.939   2.729 -0.4469 -0.6772  0.2733
 1815SOL    HW115122   3.934   0.855   2.687 -0.8910 -0.6041  0.4764
 1815SOL    HW215123   4.058   0.960   2.694  0.0167 -1.6850  0.8353
 1816SOL     OW15124   8.918   2.416   1.331 -0.7092  0.0028  0.1269
 1816SOL    HW115125   8.951   2.502   1.291  1.2555 -0.9948 -0.4814
 1816SOL    HW215126   8.980   2.387   1.404 -0.2856 -1.8284 -0.9128
 1817SOL     OW15127   1.525   6.158   2.453  0.1733 -0.0768 -0.5094
 1817SOL    HW115128   1.506   6.249   2.416 -2.2136 -0.0815  0.6142
 1817SOL    HW215129   1.594   6.165   2.525 -0.7510  0.9760  0.2726
 1818SOL     OW15130   0.698   7.469   0.556 -0.1963 -0.4035  0.6269
 1818SOL    HW115131   0.694   7.370   0.571 -1.1662 -0.5687 -0.5957
 1818SOL    HW215132   0.712   7.487   0.459 -0.6928  0.6589  0.7462
 1819SOL     OW15133   4.674   7.739   4.159  0.0357  0.3709 -0.1694
 1819SOL    HW115134   4.601   7.807   4.163  0.1915  0.6138 -1.2786
 1819SOL    HW215135   4.656   7.675   4.084  0.6027  0.0170 -0.0101
 1820SOL     OW15136   3.130   0.508   2.093  0.1048 -0.2950 -0.2409
 1820SOL    HW115137   3.210   0.469   2.048  0.7546 -0.2470  0.8461
 1820SOL    HW215138   3.135   0.608   2.090  0.0175 -0.2926 -0.3004
 1824SOL     OW15139   3.457   8.500   0.334  0.6203  0.4468 -0.3960
 1824SOL    HW115140   3.450   8.595   0.364 -0.5661 -0.3235  1.9048
 1824SOL    HW215141   3.487   8.443   0.411  0.9157 -1.1021 -1.6393
 1825SOL     OW15142   3.839   1.979   0.979  0.1560  0.5821 -0.4214
 1825SOL    HW115143   3.923   1.996   1.030 -0.2527 -0.9576  0.8056
 1825SOL    HW215144   3.767   2.042   1.011  0.1421  0.2006  0.3051
 1826SOL     OW15145   9.931   4.957   2.863  0.1636 -0.5119 -0.0671
 1826SOL    HW115146   9.863   4.922   2.798  1.1730  0.8054 -1.8667
 1826SOL    HW215147  10.019   4.966   2.817  0.6099  1.5976  1.1412
 1827SOL     OW15148   7.343   8.012   2.494  0.4460  0.2012  0.3592
 1827SOL    HW115149   7.331   7.982   2.589 -0.7932  1.2442  0.5471
 1827SOL    HW215150   7.253   8.036   2.455  1.0800  0.9225 -0.6785
 1829SOL     OW15151   5.993   1.000   1.141 -0.1333  0.2585  0.2957
 1829SOL    HW115152   6.065   1.030   1.077  0.9431 -0.3344  1.2007
 1829SOL    HW215153   5.917   0.961   1.089 -0.1036  1.5034 -0.7212
 1831SOL     OW15154   6.965   8.878   1.638 -0.6252  0.3591 -0.2834
 1831SOL    HW115155   6.931   8.960   1.592 -1.3218 -0.2106 -0.7987
 1831SOL    HW215156   6.905   8.800   1.616  0.2609 -0.3696 -0.1298
 1832SOL     OW15157   7.990   9.940   0.850  0.2631  1.0394  0.7612
 1832SOL    HW115158   8.028   9.994   0.775 -0.1166  1.6211  0.9901
 1832SOL    HW215159   7.892   9.955   0.856  0.4194  1.6428  1.9137
 1833SOL     OW15160   3.559   4.202   0.908 -0.2542  0.2152 -0.1904
 1833SOL    HW115161   3.507   4.147   0.974  2.2067 -0.5125  1.2014
 1833SOL    HW215162   3.540   4.169   0.816 -2.7469  0.4047  0.2080
 1835SOL     OW15163   3.052   5.294   0.895  0.8828 -0.0683  0.1922
 1835SOL    HW115164   3.041   5.374   0.954 -1.0596 -1.8887  2.4011
 1835SOL    HW215165   2.981   5.295   0.824  1.2623  0.4685 -0.1894
 1837SOL     OW15166   0.141   4.960   2.693  0.1740 -0.3618 -0.0727
 1837SOL    HW115167   0.115   5.045   2.648 -0.9801 -0.3667  0.5646
 1837SOL    HW215168   0.079   4.887   2.665  0.5278 -0.7559  0.1682
 1838SOL     OW15169   1.852   7.539   2.067  0.4154  0.0941  0.3252
 1838SOL    HW115170   1.758   7.512   2.045 -0.0787  1.0527  1.1683
 1838SOL    HW215171   1.881   7.611   2.004  1.0165 -1.0355 -0.6856
 1839SOL     OW15172   4.910   0.800   2.135 -0.2375  0.7185 -0.7719
 1839SOL    HW115173   4.847   0.737   2.181 -1.2417  1.8312 -0.5921
 1839SOL    HW215174   4.952   0.861   2.202 -0.9512  1.6879 -1.1884
 1840SOL     OW15175   8.576   6.173   0.856  0.3519  0.1301 -0.5469
 1840SOL    HW115176   8.607   6.267   0.841  1.0193 -0.1810 -1.1223
 1840SOL    HW215177   8.641   6.125   0.915 -0.4023  0.2628  0.4119
 1841SOL     OW15178   2.859   1.051   2.319 -0.2725  0.2599 -0.4197
 1841SOL    HW115179   2.858   1.069   2.418 -1.5714  0.3439 -0.4391
 1841SOL    HW215180   2.771   1.079   2.280 -0.4755 -1.5638 -1.2844
 1842SOL     OW15181   0.927   5.178   3.163  0.2474  0.2283 -0.2122
 1842SOL    HW115182   0.897   5.199   3.070 -0.1320 -0.5895 -0.2815
 1842SOL    HW215183   1.026   5.166   3.165  0.1462 -0.6520 -0.6811
 1843SOL     OW15184   3.358   7.312   0.537  0.4301 -0.0999  0.4876
 1843SOL    HW115185   3.321   7.338   0.448 -0.0635 -1.0847  0.4074
 1843SOL    HW215186   3.454   7.340   0.542  0.5826 -0.4282 -0.5193
 1844SOL     OW15187   3.204   7.778   3.608 -0.0727 -0.0787  0.5533
 1844SOL    HW115188   3.296   7.791   3.644 -0.1194  1.8245  0.0542
 1844SOL    HW215189   3.140   7.838   3.658 -1.3857 -2.6768  2.1389
 1846SOL     OW15190   2.367   2.092   3.062  0.5750  0.0970 -0.0665
 1846SOL    HW115191   2.365   2.014   3.125  1.3987  0.4094  0.3542
 1846SOL    HW215192   2.369   2.059   2.967  1.2531 -0.4013  0.1185
 1847SOL     OW15193   3.558   3.388   1.157  0.5705  0.5294  0.0060
 1847SOL    HW115194   3.474   3.424   1.118  1.1744  1.5587 -0.3525
 1847SOL    HW215195   3.581   3.302   1.112  0.0152  0.5313 -0.2901
 1848SOL     OW15196   2.086   8.154   2.352  0.3484 -0.1678  0.4147
 1848SOL    HW115197   2.052   8.069   2.310  1.2145 -0.9851  1.3399
 1848SOL    HW215198   2.008   8.208   2.384 -0.2332 -0.4152 -0.5433
 1849SOL     OW15199   4.701   4.804   0.906 -0.3240 -1.1590 -0.5331
 1849SOL    HW115200   4.792   4.763   0.902 -0.1103 -0.7850  0.5474
 1849SOL    HW215201   4.672   4.813   1.001 -0.9982 -0.1644 -0.8241
 1850SOL     OW15202   8.804   9.753   1.601  0.3391 -0.0026 -0.6138
 1850SOL    HW115203   8.858   9.752   1.517  1.5597  0.4578  0.1505
 1850SOL    HW215204   8.766   9.844   1.616 -1.8803 -0.6817 -1.8991
 1852SOL     OW15205   4.835   3.596   1.880 -0.4117  0.2569 -0.7332
 1852SOL    HW115206   4.884   3.608   1.794  1.8845 -0.1814  0.4747
 1852SOL    HW215207   4.864   3.665   1.946  0.1032 -1.2181  0.6487
 1853SOL     OW15208   0.279   0.615   0.037  0.0008  0.3013 -0.6725
 1853SOL    HW115209   0.192   0.570   0.018 -1.9198  3.3286  0.4842
 1853SOL    HW215210   0.311   0.664  -0.044  1.5506 -2.1440 -1.6054
 1854SOL     OW15211   9.799   7.740   2.572  0.2105  0.4219  0.1070
 1854SOL    HW115212   9.827   7.650   2.603 -1.0367  0.5936  1.7833
 1854SOL    HW215213   9.710   7.733   2.525  0.6009  0.6309 -0.6715
 1855SOL     OW15214   7.658   0.587   0.678 -0.2365 -0.1078 -0.5963
 1855SOL    HW115215   7.624   0.564   0.769  1.1512  1.3357  0.3030
 1855SOL    HW215216   7.709   0.509   0.641 -1.2137 -0.8757 -0.3658
 1858SOL     OW15217   4.048   8.710   3.988 -0.1947  0.1469 -0.6627
 1858SOL    HW115218   4.129   8.658   4.017  1.4328  2.4484 -0.9623
 1858SOL    HW215219   4.022   8.773   4.061 -1.0490  0.1849 -1.0032
 1860SOL     OW15220   7.574   1.425   1.176 -0.4696  0.5044  0.6220
 1860SOL    HW115221   7.613   1.391   1.090 -2.1079  0.3978 -0.0907
 1860SOL    HW215222   7.476   1.438   1.166 -0.3931  2.3601  1.8851
 1861SOL     OW15223   3.264   0.597   3.519 -0.4821  0.0665 -0.4665
 1861SOL    HW115224   3.272   0.584   3.420 -1.2829 -1.1231 -0.3918
 1861SOL    HW215225   3.311   0.522   3.566  0.1114  0.7639  0.0627
 1862SOL     OW15226   7.456   6.736   3.813  0.3886  0.8720 -0.1210
 1862SOL    HW115227   7.468   6.735   3.913  0.1744  1.7859 -0.0865
 1862SOL    HW215228   7.424   6.826   3.784 -5.1367 -0.9394 -0.3465
 1863SOL     OW15229   9.782   5.374   3.102  0.7453  0.6473 -0.0507
 1863SOL    HW115230   9.708   5.309   3.111  0.0476  1.5469  0.7864
 1863SOL    HW215231   9.748   5.467   3.119  2.3501  0.9266  1.7866
 1864SOL     OW15232   1.156   4.750   3.335  0.0499  0.1299  0.4833
 1864SOL    HW115233   1.183   4.694   3.257  0.9977  1.4764 -0.1753
 1864SOL    HW215234   1.076   4.805   3.311 -0.0359  0.0885  0.6724
 1865SOL     OW15235   8.627   6.397   4.055 -0.5192  0.5703 -0.0718
 1865SOL    HW115236   8.564   6.472   4.074  0.5329  1.6929 -0.9828
 1865SOL    HW215237   8.710   6.432   4.013  0.3937 -0.9976  0.3685
 1866SOL     OW15238   9.514   5.134   0.549  0.4001 -0.3995  0.2031
 1866SOL    HW115239   9.417   5.161   0.555  0.6251  0.4083  0.2430
 1866SOL    HW215240   9.567   5.208   0.509  0.9390 -1.0113 -0.2291
 1867SOL     OW15241   9.485   0.571   3.669  0.6433  0.5162  0.0233
 1867SOL    HW115242   9.506   0.474   3.664  1.9316  0.7539  0.6082
 1867SOL    HW215243   9.548   0.616   3.733 -0.0800  1.6917 -0.0630
 1869SOL     OW15244   1.465   6.845   3.947 -0.4209  0.7651  0.0495
 1869SOL    HW115245   1.532   6.853   4.020 -1.0415  1.2759  0.5752
 1869SOL    HW215246   1.377   6.815   3.985 -0.5864  0.4415 -0.5736
 1870SOL     OW15247   4.383   3.561   0.222  0.0592 -0.0053 -0.2800
 1870SOL    HW115248   4.287   3.586   0.229  0.0186 -0.1279 -0.3818
 1870SOL    HW215249   4.434   3.598   0.300 -0.2086 -0.5887  0.1765
 1871SOL     OW15250   8.975   6.816   1.243 -0.0739  0.0853 -0.3736
 1871SOL    HW115251   9.024   6.901   1.224  0.2190 -0.1473 -0.6594
 1871SOL    HW215252   8.916   6.793   1.166 -1.4772  0.9463  0.4250
 1872SOL     OW15253   8.790   9.240   1.609 -0.2665 -0.6336  0.5535
 1872SOL    HW115254   8.724   9.169   1.583  0.1540 -1.0763  0.6720
 1872SOL    HW215255   8.777   9.265   1.704  0.2997 -1.3570  0.8303
 1873SOL     OW15256   0.681   9.045   0.564  0.5119  0.1696 -0.8961
 1873SOL    HW115257   0.755   9.029   0.630  0.4533 -0.1873 -0.9134
 1873SOL    HW215258   0.707   9.118   0.502  0.0217  1.4301  0.3482
 1874SOL     OW15259   4.292   9.478   2.494 -0.0911  0.4390  0.9545
 1874SOL    HW115260   4.219   9.543   2.474 -1.4554 -1.0806  0.9094
 1874SOL    HW215261   4.363   9.486   2.424 -0.5477  1.4271  0.5846
 1875SOL     OW15262   9.630   9.876   3.139  0.4699  0.4865 -0.1884
 1875SOL    HW115263   9.638   9.975   3.156 -0.6707  1.1412 -3.1514
 1875SOL    HW215264   9.547   9.842   3.184 -0.5192  1.4166 -1.2800
 1877SOL     OW15265   3.872   8.622   2.127 -0.2639  0.4449 -0.0365
 1877SOL    HW115266   3.925   8.636   2.044  0.1472 -1.7906 -0.1869
 1877SOL    HW215267   3.819   8.538   2.120 -2.4452  1.6831  0.8584
 1879SOL     OW15268   0.821   6.402   4.381  0.4006 -0.3319 -0.6816
 1879SOL    HW115269   0.742   6.345   4.360 -1.4189  2.5173 -1.8155
 1879SOL    HW215270   0.825   6.419   4.480 -0.7056 -0.0945 -0.6711
 1880SOL     OW15271   9.537   5.804   0.396 -0.4466  0.7375  0.4326
 1880SOL    HW115272   9.485   5.781   0.479  0.8979  1.8876  1.6263
 1880SOL    HW215273   9.490   5.877   0.347 -0.5668  0.9581  0.8758
 1881SOL     OW15274   2.590   6.633   3.891 -0.0898  0.0887  0.0382
 1881SOL    HW115275   2.507   6.644   3.947 -1.3034  0.7713 -1.8250
 1881SOL    HW215276   2.610   6.536   3.879 -0.0781 -0.0696  1.2514
 1882SOL     OW15277   9.627   8.863   1.669  0.2728  0.3466  0.0172
 1882SOL    HW115278   9.691   8.800   1.713 -2.2916 -0.5452  2.5639
 1882SOL    HW215279   9.534   8.830   1.681 -0.8947  2.9668 -1.4239
 1884SOL     OW15280   5.150   8.864   4.408  0.5377 -0.3950  0.8627
 1884SOL    HW115281   5.164   8.825   4.317 -2.0877 -1.1871  0.7329
 1884SOL    HW215282   5.110   8.955   4.400 -0.2303 -0.6891  1.1868
 1885SOL     OW15283   0.307   8.987   4.403  0.4219  0.1474 -0.5293
 1885SOL    HW115284   0.293   8.906   4.459  2.8950  0.5978  0.8041
 1885SOL    HW215285   0.373   8.967   4.330  0.1819  0.6452 -0.8929
 1886SOL     OW15286   5.370   8.854   1.217 -0.4929  0.3837  0.4653
 1886SOL    HW115287   5.390   8.773   1.271 -1.2010 -0.8847 -1.1532
 1886SOL    HW215288   5.440   8.864   1.146 -1.9459 -0.3919 -1.0931
 1887SOL     OW15289   5.303   0.979   3.060  0.3701 -0.6437  0.2235
 1887SOL    HW115290   5.336   1.072   3.079  0.0592 -0.9798  2.4202
 1887SOL    HW215291   5.302   0.965   2.961 -0.9874  2.2118 -0.2235
 1892SOL     OW15292   9.677   0.024   1.332 -0.2719 -0.3432  0.0032
 1892SOL    HW115293   9.679   0.041   1.233 -3.4592 -2.7442 -0.5811
 1892SOL    HW215294   9.763  -0.017   1.361  0.7603  0.5433 -1.7176
 1893SOL     OW15295   2.749   4.687   0.667  0.0507 -0.4305 -0.0983
 1893SOL    HW115296   2.664   4.701   0.718  0.7946  1.6831  0.5948
 1893SOL    HW215297   2.727   4.667   0.571 -1.2323 -0.1468  0.1205
 1894SOL     OW15298   9.823   7.576   1.327  0.0925 -0.4100 -0.8021
 1894SOL    HW115299   9.798   7.635   1.250 -1.7990  0.0257  0.1082
 1894SOL    HW215300   9.827   7.481   1.297  0.5451 -0.1107 -1.6960
 1896SOL     OW15301   8.426   5.675   4.344  0.0927 -0.2762  0.1388
 1896SOL    HW115302   8.425   5.691   4.443  1.3340 -0.1763  0.1441
 1896SOL    HW215303   8.416   5.762   4.296  1.2248 -0.1199  0.1782
 1897SOL     OW15304   8.537   8.180   0.050  0.1322  0.2697  0.2506
 1897SOL    HW115305   8.578   8.183  -0.041 -1.5647 -1.1237 -0.5850
 1897SOL    HW215306   8.502   8.270   0.074  0.9004  0.7229 -0.3367
 1898SOL     OW15307   0.707   0.207   2.385  0.1039  0.0739 -0.1070
 1898SOL    HW115308   0.794   0.213   2.336  0.8518  2.7571  1.4359
 1898SOL    HW215309   0.650   0.286   2.360 -2.0145 -1.7681 -1.2716
 1899SOL     OW15310   0.152   0.208   1.231 -0.1798  0.3796  0.6649
 1899SOL    HW115311   0.118   0.124   1.189  1.4373 -0.7714  1.5816
 1899SOL    HW215312   0.104   0.225   1.317 -0.3091  0.2393  0.6201
 1900SOL     OW15313   3.847   1.961   0.394  0.0663 -0.6348 -0.0260
 1900SOL    HW115314   3.774   1.956   0.461 -1.6804  0.5262 -1.7931
 1900SOL    HW215315   3.809   1.986   0.305  2.5335 -0.6341 -1.1180
 1901SOL     OW15316   2.816   8.905   0.593  0.6387 -0.2926 -0.3054
 1901SOL    HW115317   2.845   8.997   0.619 -2.0058 -0.2879  3.0156
 1901SOL    HW215318   2.755   8.910   0.513  3.4394  0.4080 -2.4630
 1902SOL     OW15319   9.136   2.450   2.578 -0.2899 -0.4960 -0.1385
 1902SOL    HW115320   9.185   2.404   2.504  0.8662 -1.0376  0.9552
 1902SOL    HW215321   9.152   2.549   2.572  1.2183 -0.6990  0.4048
 1903SOL     OW15322   9.991   9.813   4.375 -0.1082 -0.7549  0.5058
 1903SOL    HW115323   9.939   9.898   4.370  2.1055  0.5115 -3.2225
 1903SOL    HW215324   9.929   9.735   4.377 -2.1814  0.7940 -1.4907
 1904SOL     OW15325   1.673   7.761   2.236 -0.5114 -0.0431 -0.3701
 1904SOL    HW115326   1.733   7.684   2.262  2.1118  1.5472 -1.4966
 1904SOL    HW215327   1.680   7.833   2.305 -1.3443  0.0416 -0.3767
 1905SOL     OW15328   4.209   8.760   3.498  0.6308  1.3366 -0.3026
 1905SOL    HW115329   4.159   8.846   3.493  0.5689  1.4768  2.0833
 1905SOL    HW215330   4.146   8.683   3.490  0.3317  1.5169  0.2928
 1906SOL     OW15331   7.568   2.714   2.524 -0.2202  0.6858 -0.3695
 1906SOL    HW115332   7.623   2.797   2.520 -0.2617  0.7257 -0.0867
 1906SOL    HW215333   7.548   2.683   2.431  1.5825 -0.1817 -0.5079
 1907SOL     OW15334   6.403   7.899   2.119 -0.0387  0.4368 -0.0022
 1907SOL    HW115335   6.465   7.944   2.056 -0.5205  1.6387  0.3592
 1907SOL    HW215336   6.373   7.965   2.189 -1.7199 -0.1043 -0.1782
 1908SOL     OW15337   0.195   8.646   4.169  0.0192 -0.0349  0.8058
 1908SOL    HW115338   0.139   8.725   4.194  0.5095  0.7116 -0.3955
 1908SOL    HW215339   0.265   8.675   4.103  0.1404 -1.4931  0.2852
 1909SOL     OW15340   8.233   6.480   4.271 -0.7810  0.1365 -0.3036
 1909SOL    HW115341   8.297   6.408   4.299  0.2320  1.2710  0.3396
 1909SOL    HW215342   8.205   6.533   4.350 -1.2687  0.6638 -0.8230
 1910SOL     OW15343   2.802   0.274   2.749 -0.3692  0.1142  0.7014
 1910SOL    HW115344   2.870   0.334   2.792  1.6456 -1.6713  0.0941
 1910SOL    HW215345   2.836   0.180   2.749 -1.6559 -0.4012 -2.0457
 1911SOL     OW15346   8.359   6.584   3.802  0.3135 -0.4486 -0.2833
 1911SOL    HW115347   8.399   6.612   3.889 -0.8659 -3.2286  1.2137
 1911SOL    HW215348   8.262   6.562   3.814  0.0295 -0.5182 -2.3820
 1912SOL     OW15349   0.783   2.803   0.040 -0.0056  0.2403  0.1183
 1912SOL    HW115350   0.783   2.821  -0.059  0.0063  1.3142  0.3043
 1912SOL    HW215351   0.689   2.797   0.072 -0.0725  2.7228  0.5138
 1913SOL     OW15352   3.396   5.178   3.388 -0.3586  0.0052  0.1250
 1913SOL    HW115353   3.307   5.219   3.368  0.8801  2.6930 -0.1178
 1913SOL    HW215354   3.401   5.155   3.485 -0.0710  3.2043  0.9291
 1914SOL     OW15355   1.387   2.505   2.099  0.6319 -0.5036 -0.3262
 1914SOL    HW115356   1.358   2.488   2.193 -3.1534  1.4868 -1.0383
 1914SOL    HW215357   1.362   2.428   2.041 -2.5944  0.7790 -0.7471
 1915SOL     OW15358   0.473   8.156   2.708 -0.6921  0.0804 -0.1322
 1915SOL    HW115359   0.383   8.115   2.692 -1.1271  0.4362  1.3303
 1915SOL    HW215360   0.463   8.238   2.764  0.5678 -0.0438  0.2953
 1916SOL     OW15361   2.328   8.966   2.420 -0.1191  0.1136 -0.1991
 1916SOL    HW115362   2.233   8.953   2.451  0.1963  0.4284  0.9167
 1916SOL    HW215363   2.344   8.909   2.340 -0.5922 -1.6839  0.9569
 1917SOL     OW15364   4.079   1.461   2.708  0.6865  0.3969 -0.5241
 1917SOL    HW115365   4.091   1.377   2.655  0.3298  1.1629 -1.8574
 1917SOL    HW215366   4.131   1.535   2.664 -1.2161  1.5053 -0.9483
 1918SOL     OW15367   4.007   1.583   3.588  0.1138  0.4129  0.4769
 1918SOL    HW115368   4.029   1.562   3.683  0.0275  1.8102  0.8188
 1918SOL    HW215369   3.969   1.675   3.582  0.2158  0.3806 -0.9225
 1921SOL     OW15370   9.563   8.598   2.669  0.5565  0.7217 -0.2427
 1921SOL    HW115371   9.525   8.539   2.740 -0.5786 -0.3610 -1.7108
 1921SOL    HW215372   9.563   8.549   2.582 -0.0962  2.7729 -1.4201
 1922SOL     OW15373   4.821   1.634   4.034 -0.2915 -0.1959 -0.6362
 1922SOL    HW115374   4.797   1.547   4.076  1.3952 -0.5324 -0.3528
 1922SOL    HW215375   4.754   1.704   4.061 -1.0370 -1.1445 -0.0073
 1923SOL     OW15376   2.291   7.913   2.246 -0.0607 -0.2132  0.1421
 1923SOL    HW115377   2.257   7.819   2.251 -0.0019 -0.2829 -0.7654
 1923SOL    HW215378   2.301   7.949   2.339 -1.5434 -0.5802  0.4680
 1924SOL     OW15379   8.924   6.123   0.819  0.0775 -0.6865  0.3992
 1924SOL    HW115380   8.866   6.079   0.887 -0.5445 -0.1150  0.2388
 1924SOL    HW215381   8.970   6.052   0.764  0.3535 -1.1403  1.2135
 1925SOL     OW15382   5.180   3.500   2.381  0.5726  0.4013  0.4163
 1925SOL    HW115383   5.264   3.469   2.425  0.6869  0.4544  0.2344
 1925SOL    HW215384   5.110   3.429   2.388  0.7971  0.1518  0.1048
 1926SOL     OW15385   4.135   1.158   2.321 -0.3416  0.3259  0.1066
 1926SOL    HW115386   4.118   1.064   2.353  0.5232  0.2698  0.4024
 1926SOL    HW215387   4.232   1.169   2.300 -0.6160  0.8746 -0.8590
 1928SOL     OW15388   3.066   4.325   4.229 -0.1725  0.7453  0.1770
 1928SOL    HW115389   3.069   4.399   4.162  0.1791  1.1236  0.6044
 1928SOL    HW215390   3.123   4.349   4.308  0.2073 -0.1179  0.1760
 1929SOL     OW15391   0.029   2.437   4.075  0.3836 -0.2892 -0.1645
 1929SOL    HW115392   0.017   2.355   4.130 -2.5758  0.2955  0.1355
 1929SOL    HW215393   0.057   2.513   4.134  1.1701 -0.5977 -0.1330
 1930SOL     OW15394   8.570   8.628   2.517 -0.0757 -0.3197  0.4318
 1930SOL    HW115395   8.519   8.701   2.471  1.0608  0.1995 -0.0384
 1930SOL    HW215396   8.551   8.541   2.472 -0.0970 -0.0386 -0.1093
 1931SOL     OW15397   8.253   8.556   1.553  0.0930  0.6654 -0.6363
 1931SOL    HW115398   8.233   8.637   1.608 -0.2826  0.7794 -0.9379
 1931SOL    HW215399   8.348   8.528   1.569  0.0441  0.8076 -0.0794
 1932SOL     OW15400   6.481   8.806   1.558 -0.0135 -0.2040  0.4717
 1932SOL    HW115401   6.476   8.819   1.460 -0.5735  2.8709  0.8852
 1932SOL    HW215402   6.393   8.771   1.592 -0.3629  0.3511  0.1299
 1933SOL     OW15403   0.737   0.932   1.286  0.3667  0.1337 -0.0234
 1933SOL    HW115404   0.836   0.924   1.299  0.6242 -0.0570 -1.9272
 1933SOL    HW215405   0.702   0.846   1.251 -0.6359 -0.0849  1.4817
 1934SOL     OW15406   0.891   7.256   0.324  0.3473  0.3607 -0.2484
 1934SOL    HW115407   0.852   7.231   0.235  0.3153 -0.4670 -0.0037
 1934SOL    HW215408   0.940   7.343   0.315 -2.4091  1.9631 -0.3309
 1938SOL     OW15409   3.802   9.017   3.552 -0.1142 -0.0071 -0.3508
 1938SOL    HW115410   3.849   8.952   3.610  0.9587  1.2308  0.1837
 1938SOL    HW215411   3.768   8.971   3.470 -2.3633 -1.9500  1.6017
 1939SOL     OW15412   6.013   9.565   2.243 -0.0250  0.1401  0.0614
 1939SOL    HW115413   5.968   9.574   2.332  0.0294  1.4672 -0.0361
 1939SOL    HW215414   5.985   9.479   2.200 -0.8760 -0.0126  0.9016
 1941SOL     OW15415   9.285   2.341   1.680 -0.2192  0.3867  0.6413
 1941SOL    HW115416   9.359   2.385   1.731  1.4718 -0.1372 -1.2498
 1941SOL    HW215417   9.315   2.250   1.650 -0.8484  0.9739 -1.8731
 1942SOL     OW15418   7.632   6.670   2.414  0.2217  0.2715 -0.4014
 1942SOL    HW115419   7.598   6.612   2.340 -2.6737  3.0959 -1.3745
 1942SOL    HW215420   7.701   6.734   2.378  0.6047  0.0203 -0.1254
 1943SOL     OW15421   6.758   8.901   3.856 -0.2204  0.6352 -0.2975
 1943SOL    HW115422   6.843   8.920   3.808  0.9587 -1.3760  0.9346
 1943SOL    HW215423   6.759   8.947   3.945 -0.5058  0.7740 -0.3648
 1944SOL     OW15424   0.956   2.062   3.408  0.2625 -0.2783  0.5951
 1944SOL    HW115425   0.900   1.980   3.421  1.5361 -1.0436  1.3902
 1944SOL    HW215426   0.965   2.110   3.495 -0.5410  0.7646  0.1158
 1945SOL     OW15427   7.532   8.791   2.915  0.2977 -0.1047  0.2191
 1945SOL    HW115428   7.464   8.721   2.894 -1.8943  1.7398  0.9826
 1945SOL    HW215429   7.529   8.812   3.012  0.9379  1.0642 -0.0080
 1946SOL     OW15430   3.876   0.978   2.154  0.3652 -1.1808  0.0517
 1946SOL    HW115431   3.912   0.996   2.063 -0.0516 -1.7885 -0.2398
 1946SOL    HW215432   3.952   0.963   2.217  0.7266  1.6872  0.3558
 1947SOL     OW15433   7.809   0.244   0.848  0.4706 -0.4304 -0.9430
 1947SOL    HW115434   7.759   0.159   0.863 -2.3356  1.3682  0.3973
 1947SOL    HW215435   7.851   0.274   0.933  2.1975 -0.8826 -1.6087
 1948SOL     OW15436   2.001   3.260   3.254  0.0577 -0.2339 -0.7881
 1948SOL    HW115437   2.065   3.303   3.318 -1.2100 -0.2565  0.5130
 1948SOL    HW215438   2.047   3.182   3.209  1.5662  0.9470 -1.3605
 1949SOL     OW15439   0.651   3.115   1.938 -0.1328  0.4805  0.8318
 1949SOL    HW115440   0.669   3.031   1.886 -1.0116  1.1859 -0.6387
 1949SOL    HW215441   0.738   3.154   1.970  0.4127 -0.0294 -0.0074
 1951SOL     OW15442   9.642   4.382   4.020  0.3955 -0.4174 -0.3349
 1951SOL    HW115443   9.658   4.460   4.082 -1.7767 -1.1614  1.2130
 1951SOL    HW215444   9.699   4.393   3.939  2.0071  1.5058  0.9769
 1952SOL     OW15445   8.392   3.010   1.561  0.3461  0.5058 -0.4643
 1952SOL    HW115446   8.359   3.101   1.588  0.9014  0.7074 -0.4584
 1952SOL    HW215447   8.478   3.019   1.510 -0.2055  0.0673 -1.5082
 1953SOL     OW15448   0.103   0.702   2.013  0.1195 -0.0530 -0.2349
 1953SOL    HW115449   0.116   0.675   2.109  1.3273  0.4140 -0.2511
 1953SOL    HW215450   0.130   0.798   2.002  1.1717 -0.4601 -1.2847
 1954SOL     OW15451   2.367   8.260   1.426  0.0248 -0.3061  0.2519
 1954SOL    HW115452   2.426   8.192   1.382 -0.1147 -0.0890 -0.2722
 1954SOL    HW215453   2.406   8.351   1.413  0.1504 -0.2728  0.8543
 1956SOL     OW15454   7.377   2.029   0.562 -0.3745 -0.1699  0.5419
 1956SOL    HW115455   7.396   2.077   0.476  0.2708  0.8160  1.2186
 1956SOL    HW215456   7.436   2.067   0.634 -0.7612 -1.1346  1.3654
 1957SOL     OW15457   3.796   9.035   1.052 -0.0581  0.1461  0.1259
 1957SOL    HW115458   3.729   9.092   1.004 -0.8858 -0.5721  0.4098
 1957SOL    HW215459   3.751   8.987   1.127  1.2137  1.2300  1.6300
 1958SOL     OW15460   0.830   1.359   0.814  0.1621  0.6800  0.3112
 1958SOL    HW115461   0.772   1.280   0.794  2.5801 -1.0904  0.1188
 1958SOL    HW215462   0.882   1.384   0.733  2.0772  0.1977  1.3717
 1959SOL     OW15463   1.911   8.225   1.201 -0.2457  0.1121  0.2362
 1959SOL    HW115464   1.893   8.128   1.188  0.7419 -0.2002  1.1304
 1959SOL    HW215465   1.937   8.266   1.114 -0.5199 -0.4513 -0.1159
 1960SOL     OW15466   4.478   9.294   0.186 -0.7458 -0.6133 -0.2985
 1960SOL    HW115467   4.508   9.276   0.279 -0.0044  0.6658 -0.2704
 1960SOL    HW215468   4.426   9.216   0.151 -2.3865 -0.4806  1.7473
 1961SOL     OW15469   0.580   9.224   0.086  0.3679 -0.1323  0.3985
 1961SOL    HW115470   0.498   9.217   0.143 -1.2615  1.4020 -1.6731
 1961SOL    HW215471   0.564   9.180  -0.002  2.3888 -1.3072  0.5814
 1963SOL     OW15472   8.976   3.099   1.467 -0.1101 -0.4326 -0.2142
 1963SOL    HW115473   9.055   3.160   1.460  0.5454 -1.4692 -2.4119
 1963SOL    HW215474   9.006   3.008   1.494 -0.7388 -0.4590  0.3940
 1964SOL     OW15475   7.025   1.063   4.013  0.0336 -0.0608 -0.1809
 1964SOL    HW115476   6.968   1.144   4.026 -1.6260 -1.2767  0.3556
 1964SOL    HW215477   6.986   1.006   3.941 -0.0698 -1.4592  0.9525
 1965SOL     OW15478   3.710   9.735   2.258 -0.0303 -0.8330 -0.7141
 1965SOL    HW115479   3.773   9.804   2.292 -0.4780  0.3520 -2.2627
 1965SOL    HW215480   3.759   9.668   2.203  0.2298 -1.1966 -0.0520
 1966SOL     OW15481   8.454   4.478   1.428  0.4592 -0.2695 -0.3325
 1966SOL    HW115482   8.400   4.560   1.446 -1.7060 -1.6194 -0.5374
 1966SOL    HW215483   8.460   4.463   1.329  0.2703 -0.7620 -0.2662
 1968SOL     OW15484   5.211   0.412   3.934 -0.0154 -0.3778 -0.7171
 1968SOL    HW115485   5.298   0.449   3.901  0.5082  0.6225  1.6688
 1968SOL    HW215486   5.216   0.398   4.033 -1.7471 -2.6785 -0.9177
 1969SOL     OW15487   1.322   6.950   0.544 -0.3930 -0.4594  0.0519
 1969SOL    HW115488   1.225   6.965   0.525 -0.3840 -0.9652 -0.4249
 1969SOL    HW215489   1.350   6.863   0.504 -0.6378 -2.1420  3.3884
 1970SOL     OW15490   7.421   6.024   4.057 -0.1651 -0.1135 -0.5428
 1970SOL    HW115491   7.392   6.051   3.965 -0.3034 -0.2472 -0.5373
 1970SOL    HW215492   7.356   5.959   4.096 -0.5401  0.5628 -0.0314
 1972SOL     OW15493   0.737   6.653   3.024 -0.0950  0.6562  0.7763
 1972SOL    HW115494   0.797   6.605   3.087 -0.0392  1.0941  1.0580
 1972SOL    HW215495   0.675   6.587   2.980  1.2663  0.0502 -0.2867
 1974SOL     OW15496   9.812   3.587   0.292 -0.2216  0.1800 -1.0043
 1974SOL    HW115497   9.752   3.664   0.314  0.8687  0.4874  0.9646
 1974SOL    HW215498   9.849   3.599   0.200 -0.6188  1.6511 -0.9856
 1975SOL     OW15499   4.912   9.858   4.298  0.5578  0.1542 -0.8523
 1975SOL    HW115500   4.996   9.810   4.320  1.0334 -0.1637 -3.2813
 1975SOL    HW215501   4.933   9.953   4.276  0.1197  0.3877 -0.2838
 1976SOL     OW15502   1.483   4.880   0.962 -0.3680  0.7004 -0.0127
 1976SOL    HW115503   1.572   4.838   0.983 -0.7777  0.0614  0.4490
 1976SOL    HW215504   1.486   4.977   0.987  0.0362  0.5675  0.4681
 1977SOL     OW15505   8.721   1.454   2.828  0.8503 -0.1536  0.3758
 1977SOL    HW115506   8.666   1.519   2.881  2.4359  0.3675  1.4283
 1977SOL    HW215507   8.818   1.474   2.842  1.3242 -1.2852 -1.1601
 1978SOL     OW15508   1.690   7.442   3.333  0.5275 -0.5499 -0.2749
 1978SOL    HW115509   1.609   7.428   3.277 -1.2119  0.2203  1.9861
 1978SOL    HW215510   1.761   7.488   3.279 -1.0777  0.1531 -1.8302
 1979SOL     OW15511   8.339   0.184   0.152 -0.0307 -0.6910  0.3204
 1979SOL    HW115512   8.292   0.203   0.238 -2.6703 -0.9361 -1.0374
 1979SOL    HW215513   8.274   0.187   0.076  2.4619  0.8094 -1.8659
 1980SOL     OW15514   2.967   3.708   2.981  0.5443  0.3776 -0.5270
 1980SOL    HW115515   2.906   3.686   3.058  1.1349  0.2254 -0.1026
 1980SOL    HW215516   2.961   3.636   2.912 -0.1387  0.6130 -0.7146
 1981SOL     OW15517   6.685   1.481   2.975 -0.1535 -0.3546 -0.4112
 1981SOL    HW115518   6.617   1.415   2.945 -1.0799  1.0111 -1.3718
 1981SOL    HW215519   6.776   1.439   2.973 -0.5193 -1.0805 -2.6021
 1982SOL     OW15520   9.798   5.641   2.498 -0.6604 -0.2631 -0.0259
 1982SOL    HW115521   9.865   5.711   2.525 -0.7929 -0.7373  1.5824
 1982SOL    HW215522   9.723   5.640   2.564 -1.0231 -1.4334 -0.4511
 1983SOL     OW15523   3.139   4.692   2.275  0.4892  0.5428 -0.1410
 1983SOL    HW115524   3.132   4.622   2.346 -0.7622  0.8453  0.0386
 1983SOL    HW215525   3.115   4.781   2.313  1.4861  0.9887 -0.5205
 1984SOL     OW15526   8.589   5.360   0.594 -0.6938 -0.5913 -0.0171
 1984SOL    HW115527   8.561   5.406   0.678  3.4949  3.6243 -0.7288
 1984SOL    HW215528   8.540   5.400   0.516 -0.4324 -0.5441 -0.1575
 1985SOL     OW15529   3.618   9.826   1.860 -0.4600 -0.3575  0.4602
 1985SOL    HW115530   3.668   9.909   1.837 -0.4824 -0.9975 -2.0704
 1985SOL    HW215531   3.551   9.806   1.788 -0.9663 -2.1665  1.3881
 1986SOL     OW15532   2.896   8.156   3.721  0.3015 -0.3316  0.3417
 1986SOL    HW115533   2.856   8.111   3.641 -1.6786 -0.3229  1.2899
 1986SOL    HW215534   2.847   8.241   3.739 -0.2575 -1.0591  2.4107
 1989SOL     OW15535   1.401   5.090   1.355  0.7450 -0.3741 -0.1150
 1989SOL    HW115536   1.348   5.080   1.439  0.2955 -1.3322 -0.5077
 1989SOL    HW215537   1.424   5.000   1.319  0.9527  0.0341 -1.0153
 1990SOL     OW15538   1.180   2.068   0.646  0.0656  0.6910  0.1881
 1990SOL    HW115539   1.264   2.020   0.670 -0.6097 -1.1328 -0.9944
 1990SOL    HW215540   1.192   2.115   0.558  0.5258  2.2372  1.0511
 1991SOL     OW15541   8.626   7.155   3.434  0.0824 -0.3504  0.3348
 1991SOL    HW115542   8.528   7.144   3.420 -0.1467  1.9494 -0.0751
 1991SOL    HW215543   8.643   7.198   3.523  0.5197  1.9560 -0.8121
 1992SOL     OW15544   1.328   3.411   2.199 -0.0308  0.3382 -0.3891
 1992SOL    HW115545   1.268   3.422   2.120  0.7849  1.1358 -0.9077
 1992SOL    HW215546   1.300   3.474   2.271 -0.8871 -0.5159  0.0415
 1993SOL     OW15547   6.320   8.769   1.287 -0.2733  0.6084  1.4583
 1993SOL    HW115548   6.257   8.841   1.316 -0.5781  1.7627 -1.7760
 1993SOL    HW215549   6.268   8.688   1.261 -0.1392  0.2191  2.4052
 1994SOL     OW15550   8.950   8.514   3.610  0.3180  0.4629 -0.1035
 1994SOL    HW115551   8.987   8.542   3.521 -0.5114  1.4995 -0.1359
 1994SOL    HW215552   8.907   8.424   3.601  1.5374 -0.0912 -0.4041
 1995SOL     OW15553   3.482   1.230   2.683 -0.2162  0.2620  0.1240
 1995SOL    HW115554   3.480   1.250   2.585  0.5362 -0.8460 -0.1328
 1995SOL    HW215555   3.576   1.236   2.716 -0.1581 -1.4768  0.3147
 1997SOL     OW15556   6.488   6.833   3.305  0.0907 -0.5099 -0.2619
 1997SOL    HW115557   6.428   6.841   3.226 -0.3951  1.2518  0.2693
 1997SOL    HW215558   6.581   6.859   3.279 -0.2229  0.7960 -0.0664
 1998SOL     OW15559   5.065   3.963   1.448  0.1712  0.2941 -0.1997
 1998SOL    HW115560   5.128   4.040   1.455 -2.7566  2.6471  1.3505
 1998SOL    HW215561   5.033   3.954   1.353 -0.6107  1.9600 -0.1040
 1999SOL     OW15562   7.286   7.792   3.245  0.0345 -0.4908  0.1347
 1999SOL    HW115563   7.195   7.798   3.204 -0.5152  1.3072  1.5577
 1999SOL    HW215564   7.355   7.823   3.179 -0.1565 -3.3919 -1.5340
 2000SOL     OW15565   5.065   0.519   4.248  0.3447 -0.0584 -0.1234
 2000SOL    HW115566   5.120   0.439   4.226 -2.9707 -2.1836 -1.0492
 2000SOL    HW215567   5.032   0.562   4.164 -2.1046 -0.8281  0.3848
 2002SOL     OW15568   0.461   4.397   3.435  0.3260  0.1899  0.4831
 2002SOL    HW115569   0.463   4.297   3.430 -1.6692  0.1187  0.8290
 2002SOL    HW215570   0.469   4.435   3.342 -0.9944 -0.3429  0.1392
 2005SOL     OW15571   0.667   7.960   0.914 -0.6565 -0.2309  0.2688
 2005SOL    HW115572   0.579   7.914   0.917  0.4213 -2.2612  1.5548
 2005SOL    HW215573   0.719   7.939   0.997  0.8455  1.3613 -0.2227
 2007SOL     OW15574   0.090   4.856   0.735  0.5992 -0.1044  0.2386
 2007SOL    HW115575   0.031   4.775   0.737  0.4589 -0.0644 -1.2957
 2007SOL    HW215576   0.181   4.829   0.702  0.1933  0.5564 -1.4764
 2008SOL     OW15577   0.443   5.191   4.157 -0.0623  0.3166 -0.2124
 2008SOL    HW115578   0.496   5.142   4.088 -1.2945  0.7786 -1.5133
 2008SOL    HW215579   0.481   5.283   4.169  1.9831 -0.7394  1.9168
 2009SOL     OW15580   1.642   5.877   1.104 -0.2590  0.2717  0.6129
 2009SOL    HW115581   1.609   5.813   1.034 -1.0849  1.9682 -0.5918
 2009SOL    HW215582   1.672   5.961   1.060  0.6740  0.7779  2.1906
 2011SOL     OW15583   0.931   3.603   2.256  0.1485  0.3458  0.5416
 2011SOL    HW115584   0.929   3.699   2.229 -1.0968  0.2247  0.1902
 2011SOL    HW215585   0.931   3.546   2.174  1.3300  0.0504  0.7452
 2012SOL     OW15586   2.462   1.640   1.232 -0.7585  0.6907  0.2066
 2012SOL    HW115587   2.466   1.551   1.276  0.6332  0.4316 -0.4276
 2012SOL    HW215588   2.474   1.629   1.133  1.8795  1.7882  0.3747
 2013SOL     OW15589   4.960   8.390   1.402 -0.1090 -0.0732  0.1169
 2013SOL    HW115590   4.865   8.411   1.381  0.3201  0.2797 -1.5293
 2013SOL    HW215591   4.973   8.290   1.401 -0.4893 -0.1288  0.5104
 2014SOL     OW15592   8.020   3.212   3.544 -0.4838 -0.6479  0.0858
 2014SOL    HW115593   8.023   3.112   3.538  0.3830 -0.6222  0.0144
 2014SOL    HW215594   8.017   3.250   3.452 -0.7457 -0.6115  0.1111
 2015SOL     OW15595   8.044   3.148   2.227  0.0043 -0.3637 -1.1486
 2015SOL    HW115596   8.098   3.231   2.246 -0.9636  0.4638 -1.9539
 2015SOL    HW215597   8.094   3.089   2.165  1.2551 -0.9903  0.4193
 2016SOL     OW15598   1.444   7.578   1.376 -0.0911 -0.4814  0.1470
 2016SOL    HW115599   1.531   7.544   1.342  0.0808 -0.0240  0.1230
 2016SOL    HW215600   1.409   7.516   1.447  0.0521 -0.8842 -0.1356
 2017SOL     OW15601   9.532   1.248   1.896 -0.2697  0.2990 -0.4255
 2017SOL    HW115602   9.440   1.280   1.874 -0.5450 -0.4300 -0.3446
 2017SOL    HW215603   9.594   1.327   1.902 -0.5924  0.6894 -1.8712
 2019SOL     OW15604   8.960   0.186   2.691  1.2143 -0.2181 -0.2359
 2019SOL    HW115605   9.021   0.123   2.739  1.0518 -1.7349 -1.9546
 2019SOL    HW215606   8.896   0.133   2.634  0.2461  1.4619 -0.7269
 2020SOL     OW15607   8.017   9.582   0.049  0.1503  0.1675 -0.1523
 2020SOL    HW115608   8.046   9.669   0.088  1.8369 -1.5836  2.6422
 2020SOL    HW215609   8.097   9.531   0.018 -0.6609 -1.0979 -0.1923
 2021SOL     OW15610   2.633   0.231   3.809  0.0461 -0.1858  0.4183
 2021SOL    HW115611   2.719   0.185   3.830 -0.8086 -1.5643  0.9411
 2021SOL    HW215612   2.562   0.163   3.793 -0.5660  0.9030 -1.7201
 2022SOL     OW15613   0.094   0.227   3.232 -0.2023 -0.1338 -0.1777
 2022SOL    HW115614   0.122   0.261   3.142  0.5228 -0.3952 -0.0625
 2022SOL    HW215615   0.038   0.295   3.278  1.1947  0.9024  0.0398
 2023SOL     OW15616   1.166   6.305   3.431 -0.2409 -0.7313  0.1218
 2023SOL    HW115617   1.104   6.375   3.394  0.6037 -0.3588 -0.5948
 2023SOL    HW215618   1.116   6.218   3.438 -1.1349 -0.2011  0.4942
 2025SOL     OW15619   0.374   6.542   1.922 -0.3227  0.7159 -0.3915
 2025SOL    HW115620   0.288   6.586   1.899  0.9130  2.8393 -1.0701
 2025SOL    HW215621   0.376   6.521   2.020 -1.4374  0.9831 -0.3073
 2026SOL     OW15622   1.974   4.578   2.819 -0.0480 -0.2565 -0.0194
 2026SOL    HW115623   1.896   4.576   2.881 -0.2147  1.4140 -0.1723
 2026SOL    HW215624   2.010   4.485   2.809 -0.0055 -0.5423  2.5643
 2028SOL     OW15625   0.501   7.703   2.835 -0.2563  0.1383  0.1665
 2028SOL    HW115626   0.402   7.702   2.852  0.1525 -1.8991  2.7109
 2028SOL    HW215627   0.521   7.656   2.750 -1.2718 -1.9991  1.0718
 2029SOL     OW15628   7.630   1.685   0.017  0.5578 -0.0108  0.1516
 2029SOL    HW115629   7.722   1.695   0.053  0.0372 -1.9147  2.0882
 2029SOL    HW215630   7.635   1.641  -0.074  1.6405  1.5742 -0.5773
 2030SOL     OW15631   9.087   9.802   0.620  0.1562  0.7633 -0.2668
 2030SOL    HW115632   9.178   9.809   0.660  0.5698 -0.2000 -1.0103
 2030SOL    HW215633   9.080   9.717   0.567 -2.1791 -0.7407  2.3249
 2031SOL     OW15634   3.429   2.951   0.613  0.1016  0.4079 -0.6203
 2031SOL    HW115635   3.501   2.965   0.682  0.5170 -1.2045 -0.7184
 2031SOL    HW215636   3.346   2.997   0.643  1.1196  2.2339 -0.4558
 2032SOL     OW15637   2.012   0.780   0.445 -0.3570  0.5966  0.2130
 2032SOL    HW115638   1.949   0.816   0.514 -0.6965  1.6127 -0.6139
 2032SOL    HW215639   2.078   0.851   0.420  0.0709  0.0744 -0.1397
 2033SOL     OW15640   9.759   4.396   2.039 -0.5169  0.1511  0.8130
 2033SOL    HW115641   9.765   4.438   1.948  0.7376  0.5637  1.0840
 2033SOL    HW215642   9.734   4.300   2.029  1.2730 -0.2414 -0.0699
 2034SOL     OW15643   4.108   0.327   1.811 -0.4240  0.3286  0.2502
 2034SOL    HW115644   4.149   0.334   1.720 -1.0704 -2.0065 -0.2662
 2034SOL    HW215645   4.016   0.367   1.809 -1.0770 -1.1748 -0.5781
 2036SOL     OW15646   8.302   5.506   2.379 -0.4509  0.1606 -0.0760
 2036SOL    HW115647   8.267   5.538   2.291  1.0127  2.4455  0.1409
 2036SOL    HW215648   8.351   5.420   2.366  1.6130  1.5677 -1.8554
 2037SOL     OW15649   9.485   2.971   3.758 -0.0336 -0.2246 -0.4337
 2037SOL    HW115650   9.532   3.023   3.829 -0.2025 -0.1781 -0.3560
 2037SOL    HW215651   9.451   3.034   3.687  2.0298 -0.4517 -1.6749
 2038SOL     OW15652   1.676   1.758   3.407  0.6215  0.4762 -0.1753
 2038SOL    HW115653   1.585   1.737   3.373  1.4685 -0.2271 -2.0674
 2038SOL    HW215654   1.723   1.819   3.343  2.0407 -0.4209 -0.0273
 2039SOL     OW15655   3.089   2.439   0.094 -0.1052  0.3122 -0.3675
 2039SOL    HW115656   3.065   2.504   0.167 -1.6872 -0.9834  0.2929
 2039SOL    HW215657   3.173   2.391   0.118 -0.8649 -0.4403  0.8609
 2040SOL     OW15658   1.668   8.668   2.153  0.3803  0.2706  0.1655
 2040SOL    HW115659   1.570   8.653   2.165  0.5778 -1.9179 -0.7830
 2040SOL    HW215660   1.689   8.674   2.055  1.1795  0.9518  0.3688
 2041SOL     OW15661   1.644   2.874   3.077 -0.2516  0.2301  0.1486
 2041SOL    HW115662   1.650   2.869   3.176  0.4197  2.0812  0.2110
 2041SOL    HW215663   1.548   2.860   3.049 -0.6210  0.7956  1.1154
 2042SOL     OW15664   0.620   4.829   2.741  0.0239 -1.2945 -0.0436
 2042SOL    HW115665   0.678   4.897   2.695  1.0364 -2.0920  0.0472
 2042SOL    HW215666   0.530   4.827   2.696  0.7368 -1.4968 -1.4942
 2044SOL     OW15667   5.237   0.551   0.356 -0.1148  0.1651  0.1577
 2044SOL    HW115668   5.196   0.624   0.301  0.9384 -1.1657 -2.4752
 2044SOL    HW215669   5.164   0.491   0.389 -0.7123  0.5684 -0.3956
 2045SOL     OW15670   1.614   5.485   1.114  0.1683  0.0876 -0.0876
 2045SOL    HW115671   1.526   5.512   1.075  1.3645  1.9424 -1.5942
 2045SOL    HW215672   1.599   5.434   1.199 -2.2851  1.8382  0.5711
 2046SOL     OW15673   3.233   2.060   4.307 -0.8499  0.3038  0.4635
 2046SOL    HW115674   3.142   2.057   4.346  0.6089  0.6394  4.0469
 2046SOL    HW215675   3.282   1.976   4.327 -0.3492  0.0791 -1.5244
 2047SOL     OW15676   1.789   6.351   0.861 -0.3758 -0.9356 -0.2625
 2047SOL    HW115677   1.793   6.415   0.939  4.1545  0.5956 -1.5926
 2047SOL    HW215678   1.743   6.395   0.784 -2.6250 -1.5369  0.7076
 2048SOL     OW15679   5.206   6.894   2.280 -0.4291  0.2352 -0.1133
 2048SOL    HW115680   5.115   6.922   2.313 -0.4371 -0.8184  0.7552
 2048SOL    HW215681   5.271   6.898   2.356 -0.1171 -0.6730 -0.3321
 2049SOL     OW15682   2.267   0.198   3.626  0.2559 -0.6040  0.1338
 2049SOL    HW115683   2.271   0.193   3.526  3.2152 -0.3015  0.2034
 2049SOL    HW215684   2.263   0.294   3.654  2.4221 -0.5458  0.3439
 2051SOL     OW15685   9.480   7.769   1.656  0.4521  0.5528  0.6725
 2051SOL    HW115686   9.475   7.674   1.685 -1.6419  0.2373 -0.6681
 2051SOL    HW215687   9.482   7.829   1.736  0.4858 -0.5420  1.4938
 2053SOL     OW15688   4.647   1.560   2.389 -0.1615  0.0933  0.0883
 2053SOL    HW115689   4.653   1.660   2.394  2.4954  0.0210 -0.9463
 2053SOL    HW215690   4.712   1.526   2.321 -0.2593 -2.4333  1.2051
 2054SOL     OW15691   1.342   7.259   0.072 -0.0097 -0.1058 -0.4569
 2054SOL    HW115692   1.245   7.286   0.072  0.4111  1.5149  1.2618
 2054SOL    HW215693   1.358   7.197   0.149  0.2706 -0.6531 -0.9500
 2055SOL     OW15694   1.187   7.674   2.040  0.8409 -0.3134  0.2243
 2055SOL    HW115695   1.185   7.666   1.940  1.1544 -2.0082  0.3263
 2055SOL    HW215696   1.104   7.632   2.078  2.2295 -2.6433  0.8066
 2056SOL     OW15697   8.570   6.927   3.873 -0.4428  0.2760  0.1807
 2056SOL    HW115698   8.651   6.880   3.910 -0.1956 -0.0079 -0.6889
 2056SOL    HW215699   8.600   7.001   3.813 -0.8367  1.0182  0.9027
 2057SOL     OW15700   3.619   1.047   0.113 -0.4272 -0.2557 -0.0998
 2057SOL    HW115701   3.646   1.118   0.179 -2.2853 -0.4365  0.8945
 2057SOL    HW215702   3.556   1.086   0.046  0.2134 -0.4694 -0.8362
 2058SOL     OW15703   4.480   0.054   1.945  0.0484  0.2582  0.0457
 2058SOL    HW115704   4.489   0.153   1.939  0.0921  0.1726 -1.2816
 2058SOL    HW215705   4.526   0.010   1.868 -0.3445 -0.7716  0.3789
 2059SOL     OW15706   7.186   0.152   2.484 -0.5603 -0.5478  0.5413
 2059SOL    HW115707   7.134   0.145   2.399  1.2466 -1.4335 -0.5084
 2059SOL    HW215708   7.149   0.087   2.551 -2.2904  0.4855  0.6159
 2060SOL     OW15709   4.329   1.616   1.345 -0.3355  0.0457 -0.0997
 2060SOL    HW115710   4.396   1.576   1.407  0.6152 -1.6667 -2.1710
 2060SOL    HW215711   4.251   1.554   1.334 -0.4120  0.2561 -0.7590
 2061SOL     OW15712   0.193   6.258   2.677  0.5752 -0.3267 -0.3010
 2061SOL    HW115713   0.094   6.257   2.690  0.6559 -0.6540  0.3302
 2061SOL    HW215714   0.219   6.336   2.619 -0.0703 -0.3735 -0.6523
 2062SOL     OW15715   0.316   1.325   4.032 -0.5181  0.0852 -0.3015
 2062SOL    HW115716   0.287   1.261   4.104 -0.7829  0.1946 -0.3107
 2062SOL    HW215717   0.388   1.282   3.978 -0.8520 -0.2972 -0.4477
 2064SOL     OW15718   4.775   1.612   1.408  0.6515  0.6517 -0.5760
 2064SOL    HW115719   4.834   1.538   1.437  1.3999  1.1495 -0.8224
 2064SOL    HW215720   4.802   1.644   1.317  0.3476  1.2297 -0.4705
 2066SOL     OW15721   4.714   7.284   3.789 -0.7420  0.1326 -0.3399
 2066SOL    HW115722   4.759   7.212   3.735 -0.5148 -0.6051  0.8195
 2066SOL    HW215723   4.767   7.369   3.781  0.2441 -0.4319  0.1149
 2067SOL     OW15724   9.995   8.661   3.420  0.4907  0.4459 -0.1429
 2067SOL    HW115725   9.944   8.585   3.460  0.0201  0.6456 -0.3474
 2067SOL    HW215726   9.938   8.744   3.423  0.7700  0.6509 -0.4582
 2068SOL     OW15727   8.358   1.549   1.570 -0.2980 -0.1425 -0.3845
 2068SOL    HW115728   8.312   1.633   1.599 -1.8215 -0.8231 -0.8092
 2068SOL    HW215729   8.290   1.480   1.546  0.9328 -0.8389 -1.9840
 2069SOL     OW15730   0.152   8.399   4.003 -0.3116 -0.3049  0.3602
 2069SOL    HW115731   0.164   8.467   4.076  1.6352 -0.3316  0.1050
 2069SOL    HW215732   0.236   8.346   3.994 -0.8794 -0.9445 -1.2603
 2071SOL     OW15733   0.268   5.571   2.931  0.5541  0.6858  0.1351
 2071SOL    HW115734   0.285   5.475   2.909 -0.6152  0.5227 -0.0715
 2071SOL    HW215735   0.174   5.582   2.965 -0.1572  2.1525 -2.2241
 2072SOL     OW15736   4.571   2.187   2.030  0.5557 -0.3043 -0.3121
 2072SOL    HW115737   4.559   2.088   2.041  0.0050 -0.0886  1.1792
 2072SOL    HW215738   4.666   2.207   2.007  0.6594 -1.1849 -0.6639
 2073SOL     OW15739   0.457   9.939   2.897  0.1092  0.4040 -0.3562
 2073SOL    HW115740   0.363   9.975   2.900  0.4949  1.3983 -0.2619
 2073SOL    HW215741   0.486   9.913   2.989 -0.0567  0.1103 -0.3828
 2074SOL     OW15742   2.725   8.025   2.927  0.3486  0.3337 -0.1740
 2074SOL    HW115743   2.690   8.118   2.917  1.2408  0.5590 -1.2466
 2074SOL    HW215744   2.821   8.028   2.958  0.3756 -0.2237 -0.1854
 2075SOL     OW15745   3.900   1.684   2.877 -0.1721  0.6443  0.4462
 2075SOL    HW115746   3.870   1.639   2.793 -0.4066  1.9393 -0.1685
 2075SOL    HW215747   3.821   1.707   2.933 -0.0959  0.9457  0.4285
 2076SOL     OW15748   1.868   0.597   0.968 -0.4958  0.0768 -0.1974
 2076SOL    HW115749   1.908   0.685   0.994  0.7055 -0.5789  0.2395
 2076SOL    HW215750   1.935   0.545   0.915 -0.3121 -1.5295  1.5632
 2077SOL     OW15751   2.439   9.326   4.300 -0.9071 -0.3376  0.4348
 2077SOL    HW115752   2.408   9.334   4.205 -0.0631 -2.1445 -0.0074
 2077SOL    HW215753   2.503   9.401   4.320 -1.0366  0.0134 -0.4384
 2078SOL     OW15754   7.784   1.041   1.558  0.2845  0.0321 -0.1274
 2078SOL    HW115755   7.758   1.085   1.473  0.5679  1.4994  0.5308
 2078SOL    HW215756   7.883   1.024   1.559  0.7012  2.3049  0.9153
 2079SOL     OW15757   9.688   8.343   0.108 -0.1788 -0.3853  0.4026
 2079SOL    HW115758   9.771   8.289   0.110 -0.0215 -0.2087 -1.2095
 2079SOL    HW215759   9.614   8.293   0.154 -0.0991 -2.0929 -1.2739
 2080SOL     OW15760   8.531   5.828   0.524  0.2491 -0.6671  0.1854
 2080SOL    HW115761   8.626   5.806   0.504 -0.0265 -0.2843 -1.6466
 2080SOL    HW215762   8.526   5.916   0.570  0.7896 -0.7400  0.3872
 2081SOL     OW15763   0.817   6.660   2.072  0.1003  0.2221 -0.1473
 2081SOL    HW115764   0.862   6.649   1.983  0.9053  1.3930  0.0993
 2081SOL    HW215765   0.746   6.730   2.065 -0.8746 -0.7626 -0.2333
 2082SOL     OW15766   4.008   9.292   3.099 -0.3218  0.1761 -0.4864
 2082SOL    HW115767   4.095   9.342   3.101  0.5058 -1.2232 -1.1839
 2082SOL    HW215768   3.982   9.266   3.192  0.3991 -0.0980 -0.3649
 2084SOL     OW15769   7.838   8.157   3.915  0.0340 -0.1690  0.1117
 2084SOL    HW115770   7.776   8.111   3.978 -0.1653  0.2078  0.1959
 2084SOL    HW215771   7.788   8.181   3.831  0.4662 -1.2632 -0.4598
 2085SOL     OW15772   0.349   0.435   0.792 -0.3180 -0.0320  0.0481
 2085SOL    HW115773   0.284   0.457   0.865 -1.2290 -0.1886 -0.7072
 2085SOL    HW215774   0.369   0.337   0.793  0.6208  0.1537  0.8510
 2086SOL     OW15775   1.380   8.119   0.687 -0.4950  0.7602  0.0737
 2086SOL    HW115776   1.471   8.125   0.728  0.0313 -0.0645 -0.9714
 2086SOL    HW215777   1.320   8.067   0.748  0.1280  0.0386  0.0701
 2087SOL     OW15778   2.972   5.205   1.624 -0.1189  0.5112  0.3441
 2087SOL    HW115779   2.924   5.145   1.688 -1.5999  1.3950  0.0668
 2087SOL    HW215780   2.998   5.290   1.670 -0.6756  0.9066 -0.0629
 2088SOL     OW15781   6.201   0.588   1.836  0.2445 -0.4227 -0.2240
 2088SOL    HW115782   6.119   0.629   1.876  0.0851 -0.1816 -0.7993
 2088SOL    HW215783   6.175   0.529   1.760  0.6627  0.2457 -0.8922
 2089SOL     OW15784   1.599   8.941   3.565 -0.0421 -0.6726 -0.2805
 2089SOL    HW115785   1.551   8.955   3.652  2.4033 -1.9580  1.3329
 2089SOL    HW215786   1.670   9.010   3.554  1.3011 -2.0078 -0.0542
 2090SOL     OW15787   9.620   8.114   0.982 -0.4168  0.2714 -0.3431
 2090SOL    HW115788   9.579   8.023   0.980  0.3665 -0.1302  1.4087
 2090SOL    HW215789   9.671   8.126   1.067  0.6606  1.8322 -1.1816
 2092SOL     OW15790   8.792   8.039   3.066 -0.6636 -0.4753  0.2699
 2092SOL    HW115791   8.731   7.968   3.101  0.9124 -1.6513  0.6510
 2092SOL    HW215792   8.844   8.079   3.141 -0.2315 -0.1599 -0.1930
 2095SOL     OW15793   2.252   8.276   0.412 -0.1893 -0.0655  0.3299
 2095SOL    HW115794   2.342   8.301   0.377 -0.3146  1.3958  1.0190
 2095SOL    HW215795   2.224   8.342   0.482 -1.7576 -0.5609  0.1845
 2097SOL     OW15796   2.014   5.767   0.017  0.0400  0.4540 -0.2887
 2097SOL    HW115797   2.052   5.800   0.104  0.2972 -3.2477  1.0674
 2097SOL    HW215798   2.083   5.716  -0.033 -0.7788  0.6889 -1.6951
 2098SOL     OW15799   9.399   7.491   3.330 -0.6285  0.6486 -0.4646
 2098SOL    HW115800   9.461   7.547   3.384  1.4250 -2.4241  0.4989
 2098SOL    HW215801   9.417   7.504   3.233 -1.2324  2.7735 -0.3030
 2100SOL     OW15802   1.360   8.361   3.694  0.2892  0.0017 -0.1512
 2100SOL    HW115803   1.427   8.344   3.766  0.3597 -0.1026 -0.2415
 2100SOL    HW215804   1.390   8.437   3.637  0.1767  0.1586  0.0013
 2101SOL     OW15805   0.384   7.662   0.031  0.2936 -0.2972 -0.3377
 2101SOL    HW115806   0.454   7.592   0.044  1.8871  1.3001 -0.0344
 2101SOL    HW215807   0.385   7.724   0.110 -1.8320 -0.5510 -0.0828
 2102SOL     OW15808   0.848   7.950   3.527  0.0654  0.1495  0.4020
 2102SOL    HW115809   0.863   7.885   3.603 -0.1302 -0.3762 -0.0050
 2102SOL    HW215810   0.936   7.987   3.497  0.0159  1.5331  1.8980
 2103SOL     OW15811   6.634   1.672   3.942  0.2430 -0.1825 -0.3563
 2103SOL    HW115812   6.725   1.652   3.906  0.5335  0.5753 -0.0497
 2103SOL    HW215813   6.567   1.612   3.898  0.9464 -1.0690 -0.2372
 2104SOL     OW15814   6.658   1.120   3.869  0.4412 -0.3581 -0.1825
 2104SOL    HW115815   6.664   1.127   3.770  0.5344 -1.1397 -0.2294
 2104SOL    HW215816   6.576   1.168   3.901 -0.0379 -0.8248 -0.7104
 2105SOL     OW15817   8.755   2.543   3.558 -0.0604  0.2073 -0.0606
 2105SOL    HW115818   8.854   2.547   3.566 -0.0426  2.8755 -0.9376
 2105SOL    HW215819   8.726   2.448   3.547  2.4643 -0.5300 -0.7462
 2107SOL     OW15820   9.419   8.238   2.593 -0.2377  0.2965 -0.0560
 2107SOL    HW115821   9.362   8.288   2.528  0.9950  1.5857 -0.1737
 2107SOL    HW215822   9.507   8.283   2.602  1.1525 -2.1961 -0.5995
 2108SOL     OW15823   1.448   5.621   1.387 -0.7570  0.2588 -0.3266
 2108SOL    HW115824   1.499   5.536   1.373 -1.1415 -0.0444  0.1137
 2108SOL    HW215825   1.441   5.640   1.484 -0.6151  0.8358 -0.4252
 2109SOL     OW15826   5.223   1.316   3.326 -0.0421 -0.2034  0.0010
 2109SOL    HW115827   5.128   1.296   3.302 -0.2422  0.4573  0.2067
 2109SOL    HW215828   5.226   1.401   3.379  0.9888  1.5727 -2.7865
 2110SOL     OW15829   2.051   7.733   1.170 -0.0220 -0.3629 -0.0130
 2110SOL    HW115830   2.094   7.646   1.143 -0.9162 -0.6045 -0.6896
 2110SOL    HW215831   2.074   7.803   1.103  2.2153  0.4114  1.4961
 2111SOL     OW15832   7.519   0.248   4.421 -0.1932 -0.5539  0.0861
 2111SOL    HW115833   7.590   0.184   4.451  0.2065 -0.4032 -0.5467
 2111SOL    HW215834   7.449   0.254   4.492  0.0559 -1.2548  0.4004
 2112SOL     OW15835   3.488   7.915   2.275 -0.2259  0.3025  0.5636
 2112SOL    HW115836   3.408   7.860   2.298 -0.5171  0.4446 -0.0840
 2112SOL    HW215837   3.543   7.866   2.207 -0.3618  0.6954  0.1637
 2113SOL     OW15838   3.439   5.060   2.001 -0.7902  0.5210  0.1209
 2113SOL    HW115839   3.358   5.117   1.986  0.6065  2.4640 -0.2155
 2113SOL    HW215840   3.494   5.097   2.075  0.2860 -0.2318 -0.2755
 2114SOL     OW15841   6.437   7.918   2.401  0.6715 -0.2321  0.3853
 2114SOL    HW115842   6.378   7.992   2.433  0.0930  0.6490 -2.5021
 2114SOL    HW215843   6.442   7.846   2.470 -3.2798 -0.0205  0.9974
 2115SOL     OW15844   0.028   0.984   1.370 -0.3298  0.0057  0.2909
 2115SOL    HW115845  -0.046   0.932   1.327 -2.1637  1.4539  1.6325
 2115SOL    HW215846   0.008   1.082   1.363  1.0323  0.3687  1.4206
 2116SOL     OW15847   8.570   9.846   0.655 -0.3184 -0.0637  0.1502
 2116SOL    HW115848   8.654   9.898   0.669  0.2495 -0.4274 -1.7352
 2116SOL    HW215849   8.513   9.851   0.737 -0.0396  3.1179  0.1984
 2118SOL     OW15850   8.247   0.999   1.392  0.2212  0.0992 -0.4134
 2118SOL    HW115851   8.216   0.923   1.335 -2.0344  0.2008  0.6453
 2118SOL    HW215852   8.252   1.082   1.337  3.0843 -0.8472 -1.6751
 2120SOL     OW15853   3.047   3.806   1.159  0.2191 -0.0500  0.5140
 2120SOL    HW115854   3.052   3.710   1.129  0.6922 -0.4691  1.8844
 2120SOL    HW215855   3.064   3.810   1.258 -1.4575  1.2604  0.7680
 2121SOL     OW15856   1.164   3.976   1.939 -0.9283 -0.5777 -0.7002
 2121SOL    HW115857   1.065   3.966   1.933 -1.2306  2.4047 -1.5895
 2121SOL    HW215858   1.196   4.035   1.865  1.4949 -1.3300 -0.2943
 2123SOL     OW15859   1.469   9.274   3.446  0.5484 -0.3064  0.2448
 2123SOL    HW115860   1.542   9.238   3.388 -0.6119 -1.0495 -0.7835
 2123SOL    HW215861   1.507   9.340   3.511  2.0169 -0.1819 -0.7242
 2124SOL     OW15862   7.871   8.688   4.133 -0.4050 -0.5589  1.0480
 2124SOL    HW115863   7.930   8.655   4.206 -1.4668 -1.9745  1.2756
 2124SOL    HW215864   7.883   8.787   4.124  1.0086 -0.6183  1.9651
 2125SOL     OW15865   1.613   0.870   1.074 -0.1820  0.2435 -0.7125
 2125SOL    HW115866   1.701   0.847   1.115 -0.5283 -1.3923 -0.8797
 2125SOL    HW215867   1.543   0.872   1.146 -0.4857 -1.0215 -0.9659
 2126SOL     OW15868   1.186   1.648   2.722 -0.2108  0.9715 -0.1157
 2126SOL    HW115869   1.271   1.699   2.713  0.4944  0.0873  1.1673
 2126SOL    HW215870   1.207   1.552   2.740 -1.4943  0.5811 -0.6077
 2127SOL     OW15871   5.748   8.767   4.019 -0.2242 -0.0975  0.8795
 2127SOL    HW115872   5.702   8.855   4.004  1.5746  0.5415 -1.2716
 2127SOL    HW215873   5.754   8.718   3.931  2.5284 -0.4598  1.2227
 2128SOL     OW15874   3.426   6.574   2.758  0.3652  1.0355 -0.1371
 2128SOL    HW115875   3.493   6.533   2.696 -0.2333 -0.2287  0.0384
 2128SOL    HW215876   3.409   6.668   2.731  2.4302  1.4756 -0.0189
 2130SOL     OW15877   0.381   5.943   2.234 -0.3506  0.5173 -0.8192
 2130SOL    HW115878   0.316   5.910   2.166  0.4897  0.9145 -1.8197
 2130SOL    HW215879   0.389   6.042   2.228 -1.7871  0.7875  1.2274
 2131SOL     OW15880   1.441   7.574   2.521 -0.2445  0.0148 -0.3716
 2131SOL    HW115881   1.496   7.517   2.460  1.5533  0.3588  0.8782
 2131SOL    HW215882   1.362   7.522   2.552  1.7324 -2.1481  1.3026
 2132SOL     OW15883   1.836   0.452   1.401 -0.5350 -0.2781  0.4247
 2132SOL    HW115884   1.767   0.399   1.451 -0.2329 -1.0476  0.0450
 2132SOL    HW215885   1.792   0.500   1.325 -0.8505  0.2046  0.9090
 2133SOL     OW15886   1.248   1.913   2.365 -0.5063  0.2135  0.0049
 2133SOL    HW115887   1.322   1.868   2.414  1.2212  2.2630 -0.6447
 2133SOL    HW215888   1.192   1.965   2.429 -0.6642 -0.3371  0.3218
 2135SOL     OW15889   1.925   3.883   1.173  0.0532  0.1911 -0.7900
 2135SOL    HW115890   1.830   3.872   1.145 -1.3148  0.8652  3.3388
 2135SOL    HW215891   1.970   3.794   1.174 -0.9267 -0.3141 -1.3618
 2136SOL     OW15892   8.030   6.067   2.125 -0.3466 -0.2092  0.2534
 2136SOL    HW115893   8.047   6.062   2.223  0.4506  0.7139  0.1604
 2136SOL    HW215894   8.114   6.047   2.075 -0.0920  1.9845 -0.2212
 2138SOL     OW15895   8.385   4.705   2.797  0.6546 -0.2940 -0.2582
 2138SOL    HW115896   8.343   4.757   2.723 -0.8521 -0.8561  0.1664
 2138SOL    HW215897   8.467   4.751   2.829  1.2191  0.0414 -2.1636
 2139SOL     OW15898   1.927   7.127   1.980 -0.3173  0.2685  0.1785
 2139SOL    HW115899   1.910   7.167   2.071  0.1168  0.7772  0.0413
 2139SOL    HW215900   1.928   7.200   1.912  1.1231  0.1015  0.0074
 2140SOL     OW15901   9.642   8.457   1.187 -0.1818  0.0503 -0.2927
 2140SOL    HW115902   9.615   8.391   1.117 -0.9859 -1.3063  1.2468
 2140SOL    HW215903   9.567   8.521   1.204 -1.1745 -1.5526  1.5080
 2141SOL     OW15904   4.090   8.364   1.449 -0.2171  0.4435 -0.7640
 2141SOL    HW115905   4.059   8.313   1.529  1.1864 -2.0944 -1.7636
 2141SOL    HW215906   4.033   8.444   1.436 -1.1254  0.3223  2.1534
 2142SOL     OW15907   7.938   3.673   0.180 -0.0348 -0.2003  0.0826
 2142SOL    HW115908   8.017   3.646   0.235 -0.2155 -0.0439  0.4213
 2142SOL    HW215909   7.862   3.610   0.198 -0.1722 -0.0027  0.1999
 2144SOL     OW15910   9.220   7.253   1.090 -0.0314  0.5008 -0.4897
 2144SOL    HW115911   9.144   7.289   1.143 -0.2881 -0.4220 -0.2358
 2144SOL    HW215912   9.195   7.250   0.993 -0.6749 -0.7164 -0.2935
 2145SOL     OW15913   0.437   9.222   1.978 -0.2995 -0.3770  0.3990
 2145SOL    HW115914   0.413   9.155   1.907 -0.7837  1.0304 -0.7969
 2145SOL    HW215915   0.533   9.210   2.004 -0.8181 -2.6171  1.4223
 2146SOL     OW15916   2.185   1.448   3.131  0.1341 -0.2450 -0.4837
 2146SOL    HW115917   2.248   1.406   3.065 -1.3376 -0.8273 -1.5487
 2146SOL    HW215918   2.145   1.530   3.090  2.2163  1.6862  1.2026
 2148SOL     OW15919   6.060   7.577   2.751  0.1958 -0.0524  0.0826
 2148SOL    HW115920   6.084   7.554   2.845  1.4190 -1.9916 -0.6858
 2148SOL    HW215921   6.026   7.671   2.747  2.6942  0.9685  2.0209
 2149SOL     OW15922   7.537   6.434   4.044 -0.2659 -0.2925 -0.3706
 2149SOL    HW115923   7.493   6.517   4.079 -0.0129  0.4278 -1.7203
 2149SOL    HW215924   7.467   6.368   4.016 -0.4689 -0.6645  0.9547
 2150SOL     OW15925   1.888   2.116   1.670 -0.1659 -0.1446 -0.0029
 2150SOL    HW115926   1.970   2.126   1.727 -0.8079 -0.9546  1.0841
 2150SOL    HW215927   1.851   2.206   1.649  0.2794  0.1793  0.5811
 2151SOL     OW15928   3.956   1.998   3.820 -0.3044  0.4297 -0.5803
 2151SOL    HW115929   4.024   2.071   3.817  1.5887 -1.3100 -0.8372
 2151SOL    HW215930   3.954   1.949   3.733 -1.9023  0.4541 -0.5799
 2152SOL     OW15931   0.020   4.488   1.783 -0.2596  0.0511 -0.1183
 2152SOL    HW115932   0.078   4.509   1.861  1.2858 -3.8048 -0.1220
 2152SOL    HW215933   0.074   4.445   1.711 -2.5941 -1.2201 -1.1942
 2153SOL     OW15934   4.440   9.543   3.788 -0.1493  0.2670 -0.2980
 2153SOL    HW115935   4.374   9.513   3.857 -1.4851  0.6034 -1.4115
 2153SOL    HW215936   4.399   9.535   3.697  1.5402 -0.0257 -1.0520
 2154SOL     OW15937   2.842   0.445   2.529 -0.4577  0.5484 -0.3184
 2154SOL    HW115938   2.844   0.378   2.604 -1.3952 -0.1430 -0.8988
 2154SOL    HW215939   2.791   0.407   2.452  0.3110  1.3398 -1.2368
 2155SOL     OW15940   3.143   2.440   2.589 -0.3520  0.0370  0.0529
 2155SOL    HW115941   3.196   2.396   2.662  0.6964  1.3033  0.0722
 2155SOL    HW215942   3.090   2.371   2.540  0.9520 -1.1907  0.3310
 2156SOL     OW15943   1.196   8.623   2.671  0.2322 -1.0409 -0.1003
 2156SOL    HW115944   1.285   8.609   2.714  0.6325  1.3775 -0.0778
 2156SOL    HW215945   1.130   8.559   2.710  1.6072 -1.8570  0.9508
 2158SOL     OW15946   9.385   6.833   2.799 -0.3117  0.3958  0.0236
 2158SOL    HW115947   9.453   6.849   2.727  0.9347  1.2955  1.3807
 2158SOL    HW215948   9.361   6.919   2.843 -2.2454  0.0770 -0.3195
 2159SOL     OW15949   1.296   9.373   0.440 -0.2301 -0.2595  0.5090
 2159SOL    HW115950   1.341   9.409   0.522 -2.0974  3.1929  0.1133
 2159SOL    HW215951   1.212   9.325   0.466  0.1255 -0.7529  0.7469
 2160SOL     OW15952   1.429   8.958   0.444 -0.5791 -0.0729  0.4103
 2160SOL    HW115953   1.418   9.040   0.387 -1.6609 -0.3550  0.2045
 2160SOL    HW215954   1.430   8.984   0.540 -1.7361  0.1043  0.3804
 2162SOL     OW15955   3.932   3.541   0.121 -0.0484 -0.1234  0.2099
 2162SOL    HW115956   3.961   3.487   0.041 -0.6928 -0.7816  0.4170
 2162SOL    HW215957   3.865   3.489   0.173 -2.4814  1.8626 -0.8720
 2163SOL     OW15958   5.561   0.289   2.245 -0.3674  0.0194 -0.1768
 2163SOL    HW115959   5.654   0.263   2.269 -1.1279 -1.0610  1.6830
 2163SOL    HW215960   5.501   0.209   2.255 -1.2953  0.3655 -2.5709
 2164SOL     OW15961   0.059   6.316   0.458  0.1131 -0.3412 -0.4876
 2164SOL    HW115962  -0.001   6.242   0.429  1.1926 -1.1112 -0.7789
 2164SOL    HW215963   0.152   6.297   0.428  0.8647 -0.0942  1.6465
 2165SOL     OW15964   1.194   4.477   2.766 -0.1081  0.4322  0.1060
 2165SOL    HW115965   1.135   4.557   2.776  1.5866  1.5522  1.2365
 2165SOL    HW215966   1.179   4.414   2.842  1.6190  1.6904  1.5165
 2166SOL     OW15967   1.878   1.211   3.697 -0.1332  0.0979  0.1320
 2166SOL    HW115968   1.861   1.120   3.735  0.2804 -0.7059 -1.5521
 2166SOL    HW215969   1.790   1.253   3.673 -0.2397 -0.6201 -0.7816
 2167SOL     OW15970   0.787   0.146   1.548 -0.0803 -0.0619 -0.7407
 2167SOL    HW115971   0.855   0.086   1.505 -1.0501 -1.2340 -0.6666
 2167SOL    HW215972   0.833   0.227   1.584  1.0843 -0.2004 -1.8642
 2168SOL     OW15973   8.149   0.630   2.884 -0.1541  0.1797  0.1603
 2168SOL    HW115974   8.237   0.677   2.883  0.6481 -1.2509 -2.8353
 2168SOL    HW215975   8.118   0.620   2.978  2.4195  1.5363  1.2129
 2169SOL     OW15976   0.970   7.516   2.122 -0.1571 -0.2669  0.2018
 2169SOL    HW115977   1.021   7.434   2.147 -0.3492 -0.5607 -0.3457
 2169SOL    HW215978   0.877   7.490   2.095 -0.4920  0.2277  0.8765
 2170SOL     OW15979   1.811   2.380   2.207  0.2721 -0.1091  0.0845
 2170SOL    HW115980   1.905   2.371   2.174  0.3054  0.2360  0.0798
 2170SOL    HW215981   1.763   2.447   2.151  0.7117  1.4808  1.5312
 2171SOL     OW15982   1.163   0.915   3.492 -0.1503 -0.1737  0.0986
 2171SOL    HW115983   1.078   0.890   3.537 -0.9661  0.4562 -1.0756
 2171SOL    HW215984   1.211   0.832   3.464 -1.5489 -0.4896 -1.3994
 2175SOL     OW15985   0.102   2.864   0.978  0.0364 -0.8621  0.4261
 2175SOL    HW115986   0.127   2.798   1.048  0.1837  0.1051  1.3070
 2175SOL    HW215987   0.106   2.821   0.887  0.9158 -1.8164  0.9109
 2177SOL     OW15988   2.235   7.008   2.342  0.0560  0.2040 -0.8855
 2177SOL    HW115989   2.317   6.958   2.316 -0.2898  0.0933 -1.8160
 2177SOL    HW215990   2.158   6.976   2.286 -0.8049 -0.3122  0.5870
 2179SOL     OW15991   3.503   7.742   1.823 -0.6535 -0.0535 -0.2181
 2179SOL    HW115992   3.530   7.646   1.826 -0.1985  0.1381  2.2712
 2179SOL    HW215993   3.411   7.750   1.784 -0.7701 -1.5078 -0.2440
 2180SOL     OW15994   1.339   3.963   0.193  0.4591 -0.4316 -0.1112
 2180SOL    HW115995   1.260   4.017   0.163 -0.6571 -0.5911  2.4081
 2180SOL    HW215996   1.351   3.885   0.131 -1.0051 -0.0897 -0.8519
 2181SOL     OW15997   2.186   9.580   0.699  0.1921 -0.0977 -0.2938
 2181SOL    HW115998   2.115   9.512   0.678 -1.1327  0.9083  0.7600
 2181SOL    HW215999   2.142   9.666   0.725  1.8269  0.6234  0.1263
 2182SOL     OW16000   1.239   3.303   2.666 -0.0624 -0.5397  0.1157
 2182SOL    HW116001   1.226   3.399   2.689  1.3314 -0.1986 -0.4432
 2182SOL    HW216002   1.271   3.296   2.571 -0.5593 -1.5745  0.0230
 2183SOL     OW16003   4.541   0.259   4.165  0.1511 -0.0171 -0.3314
 2183SOL    HW116004   4.456   0.213   4.137 -0.5633  0.5105  0.9141
 2183SOL    HW216005   4.559   0.239   4.262  0.6527  1.0779 -0.1881
 2185SOL     OW16006   4.153   0.168   0.052 -0.2367  0.3568 -0.1683
 2185SOL    HW116007   4.204   0.189  -0.032  0.1708  0.1188  0.0172
 2185SOL    HW216008   4.193   0.218   0.128 -1.0785  1.1687 -0.2418
 2187SOL     OW16009   0.513   2.729   1.993 -0.4003  0.2573  0.0292
 2187SOL    HW116010   0.530   2.814   1.944  2.4426 -0.1988  0.1524
 2187SOL    HW216011   0.553   2.734   2.084 -3.9912  0.3780  1.6816
 2189SOL     OW16012   1.552   3.628   2.793  0.4289 -0.3286 -0.0151
 2189SOL    HW116013   1.565   3.691   2.717  0.0129  0.3327  0.4525
 2189SOL    HW216014   1.639   3.586   2.817  0.4690 -0.9559 -1.2051
 2190SOL     OW16015   2.046   9.745   1.516 -0.1669 -0.0241 -0.1938
 2190SOL    HW116016   2.025   9.821   1.454 -1.1752 -0.3409 -0.2477
 2190SOL    HW216017   2.046   9.659   1.465  0.0987 -0.1624  0.0380
 2191SOL     OW16018   2.116   1.669   0.640 -0.5003 -0.0966 -0.1809
 2191SOL    HW116019   2.092   1.593   0.700  0.5728  0.2117  0.6346
 2191SOL    HW216020   2.210   1.659   0.607 -0.4768  0.6715 -0.3807
 2194SOL     OW16021   8.985   7.177   1.803 -0.0411  0.1681 -0.0611
 2194SOL    HW116022   9.014   7.152   1.711 -2.8872  0.4644 -1.1180
 2194SOL    HW216023   8.885   7.173   1.807  0.0600  0.1323  3.0392
 2195SOL     OW16024   7.671   0.606   2.859 -0.2782 -0.3134 -0.8787
 2195SOL    HW116025   7.746   0.552   2.821 -0.1442 -0.6702 -0.1018
 2195SOL    HW216026   7.584   0.563   2.835 -0.2352  0.0199 -1.6536
 2196SOL     OW16027   0.209   2.279   2.229  0.2017  0.1229 -0.2088
 2196SOL    HW116028   0.283   2.223   2.266 -0.4382  0.0554  0.9918
 2196SOL    HW216029   0.216   2.283   2.129  1.9804  0.3483 -0.0770
 2198SOL     OW16030   9.666   3.369   3.529 -0.5062 -0.3225 -0.5188
 2198SOL    HW116031   9.578   3.366   3.576 -1.0961  1.7523 -1.4548
 2198SOL    HW216032   9.738   3.390   3.595 -1.1062  0.8163 -0.2050
 2199SOL     OW16033   6.096   0.276   3.189  0.1854  0.4040 -0.8117
 2199SOL    HW116034   6.005   0.272   3.146 -0.2638  3.4089 -0.2967
 2199SOL    HW216035   6.166   0.282   3.117 -0.2170  0.5391 -1.1982
 2200SOL     OW16036   3.713   4.443   0.930 -0.1974  0.0285  0.3861
 2200SOL    HW116037   3.792   4.472   0.875 -2.3202  1.4393 -1.9925
 2200SOL    HW216038   3.682   4.354   0.898 -0.7142  0.3218  0.0682
 2202SOL     OW16039   4.515   9.580   4.199 -0.3595  0.4670  0.5034
 2202SOL    HW116040   4.445   9.622   4.256 -0.2038 -1.3317  2.0669
 2202SOL    HW216041   4.494   9.599   4.103 -1.1724  2.6811  1.0791
 2203SOL     OW16042   8.789   3.412   1.169  0.5519  0.7711 -0.6349
 2203SOL    HW116043   8.723   3.398   1.243  0.5276 -1.0031 -0.9728
 2203SOL    HW216044   8.742   3.407   1.081  1.2541 -1.4202 -0.9123
 2204SOL     OW16045   9.840   3.019   3.988 -0.6967  0.1297  0.4004
 2204SOL    HW116046   9.786   3.056   3.913 -1.1004 -2.4125 -0.5879
 2204SOL    HW216047   9.794   2.940   4.027  1.0100 -0.4464  1.2982
 2205SOL     OW16048   5.104   8.890   2.207  0.4266 -0.3061  0.1806
 2205SOL    HW116049   5.033   8.821   2.213  0.1600 -0.1680 -1.1512
 2205SOL    HW216050   5.118   8.933   2.297 -0.4080 -1.0801  0.6774
 2206SOL     OW16051   7.887   2.505   3.827 -0.0212  0.5008 -0.4471
 2206SOL    HW116052   7.885   2.559   3.910  1.4614  0.5380 -0.4239
 2206SOL    HW216053   7.793   2.483   3.799 -0.5275  0.3678  1.2957
 2208SOL     OW16054   2.339   5.000   1.759 -0.0935 -0.2060  0.3354
 2208SOL    HW116055   2.355   4.903   1.744 -0.2983 -0.1304 -0.3963
 2208SOL    HW216056   2.254   5.013   1.811 -0.2363 -0.4028  0.1501
 2209SOL     OW16057   1.516   0.476   3.364 -0.0427  0.2847  0.0719
 2209SOL    HW116058   1.560   0.389   3.341 -0.0281  0.2426  0.2584
 2209SOL    HW216059   1.506   0.531   3.281  0.1432  0.1945 -0.0102
 2211SOL     OW16060   8.870   7.001   3.551  0.2863  0.0927  0.4342
 2211SOL    HW116061   8.862   6.904   3.576  1.2464 -0.1791 -0.2435
 2211SOL    HW216062   8.780   7.036   3.525  0.3655 -1.3924 -2.0050
 2212SOL     OW16063   2.816   2.723   4.380 -0.5966  0.4625 -0.5564
 2212SOL    HW116064   2.782   2.658   4.448 -0.6591  1.3047  0.2335
 2212SOL    HW216065   2.742   2.783   4.350 -0.0909  1.5224  0.2813
 2213SOL     OW16066   8.075   9.684   1.910 -0.0652  0.1378 -0.1752
 2213SOL    HW116067   8.054   9.782   1.915  1.8641  0.7362 -2.7303
 2213SOL    HW216068   8.033   9.645   1.828 -2.1913 -1.5946  1.6590
 2214SOL     OW16069   7.756   6.776   1.893 -0.5203  0.2234  0.0802
 2214SOL    HW116070   7.751   6.854   1.956 -2.2630 -0.9012  1.3694
 2214SOL    HW216071   7.718   6.802   1.804 -2.8529  0.2980  1.0813
 2215SOL     OW16072   7.350   8.830   0.463  0.0056 -0.4136 -0.6593
 2215SOL    HW116073   7.328   8.767   0.389  1.2933 -0.6867 -0.8114
 2215SOL    HW216074   7.403   8.907   0.426  2.6011 -1.6681  0.3236
 2216SOL     OW16075   6.627   0.239   4.105 -0.0536 -0.3879  0.3108
 2216SOL    HW116076   6.565   0.221   4.028 -0.1002 -1.4594  0.5871
 2216SOL    HW216077   6.612   0.331   4.140 -0.5245 -0.1485 -0.5106
 2218SOL     OW16078   4.331   9.557   1.491  0.4156  0.0563 -0.0315
 2218SOL    HW116079   4.347   9.655   1.500  0.1381 -0.0909  2.3105
 2218SOL    HW216080   4.241   9.542   1.449  1.7188  0.7784 -3.2480
 2220SOL     OW16081   0.289   9.255   4.403 -0.1609  0.9879 -0.0909
 2220SOL    HW116082   0.298   9.156   4.416 -0.5795  0.7096 -1.8037
 2220SOL    HW216083   0.253   9.296   4.487  1.6595 -0.0620  1.2290
 2221SOL     OW16084   7.715   6.853   1.610  0.5991 -0.0579  0.7241
 2221SOL    HW116085   7.642   6.912   1.575  1.3674 -0.0690 -0.9374
 2221SOL    HW216086   7.803   6.882   1.572  1.1107 -1.6809  0.6192
 2222SOL     OW16087   9.541   0.292   2.047  0.7161 -0.1530 -0.2547
 2222SOL    HW116088   9.612   0.252   2.105  0.5614  0.8496  0.6377
 2222SOL    HW216089   9.581   0.316   1.958  1.5276  0.5283  0.2852
 2223SOL     OW16090   3.476   1.308   1.101 -0.6394  0.9176  0.0773
 2223SOL    HW116091   3.412   1.376   1.137 -0.2249  1.2898  0.1092
 2223SOL    HW216092   3.462   1.221   1.149 -0.7258  1.1592  0.4924
 2224SOL     OW16093   0.560   1.268   1.790 -0.3298 -0.2276 -0.1794
 2224SOL    HW116094   0.509   1.185   1.770  0.2151 -0.7004  0.3965
 2224SOL    HW216095   0.627   1.284   1.717 -0.5764 -0.1761 -0.3960
 2226SOL     OW16096   1.922   6.542   3.153  0.2824  0.5713  0.0054
 2226SOL    HW116097   2.000   6.542   3.215 -0.0745  0.8187  0.4598
 2226SOL    HW216098   1.937   6.475   3.081  1.1137  0.9421 -0.1697
 2227SOL     OW16099   1.194   6.592   1.860  0.1802  0.0633 -0.5021
 2227SOL    HW116100   1.245   6.669   1.897  0.6290 -0.5803  0.2444
 2227SOL    HW216101   1.097   6.616   1.851  0.2284  0.5255  0.2244
 2229SOL     OW16102   1.226   8.320   2.281 -0.3411 -0.3115 -0.2479
 2229SOL    HW116103   1.237   8.407   2.329 -1.7762 -0.6424  0.7114
 2229SOL    HW216104   1.314   8.274   2.275  0.0393  0.2013  1.1757
 2230SOL     OW16105   1.043   3.009   3.855 -0.6440 -0.0095 -0.0833
 2230SOL    HW116106   0.989   3.093   3.849  0.3614  0.4969 -3.7696
 2230SOL    HW216107   0.986   2.931   3.830 -1.0660 -0.1634  1.3674
 2231SOL     OW16108   5.815   0.907   3.258  0.0632 -0.3569 -0.4753
 2231SOL    HW116109   5.845   0.861   3.341  0.3716  0.8162  0.0764
 2231SOL    HW216110   5.777   0.997   3.281 -1.0068 -0.5276 -1.4742
 2232SOL     OW16111   9.070   2.784   0.886 -0.8428 -0.8412 -0.2500
 2232SOL    HW116112   9.009   2.862   0.899 -2.9927 -1.9789 -2.9229
 2232SOL    HW216113   9.043   2.709   0.947 -0.3878 -0.3963  0.5011
 2233SOL     OW16114   3.455   9.592   1.509  0.8776 -0.0632  0.0116
 2233SOL    HW116115   3.471   9.589   1.411  2.2685 -1.6968  0.2654
 2233SOL    HW216116   3.527   9.541   1.556 -0.7881 -0.8778  1.7519
 2234SOL     OW16117   3.333   8.565   1.483  0.2456 -0.2556  0.4387
 2234SOL    HW116118   3.330   8.485   1.424 -0.3116 -0.4009  0.6576
 2234SOL    HW216119   3.252   8.621   1.467  1.8308  1.5680 -1.5173
 2235SOL     OW16120   1.811   2.936   2.397  0.0647  0.0518 -0.0155
 2235SOL    HW116121   1.772   2.875   2.328  1.2697  0.1321 -0.7893
 2235SOL    HW216122   1.904   2.907   2.417 -0.5489 -0.4564  2.1935
 2236SOL     OW16123   7.144   0.058   0.241 -0.1089  0.2025  0.2464
 2236SOL    HW116124   7.101   0.047   0.331 -0.8256 -0.7199 -0.2119
 2236SOL    HW216125   7.231   0.009   0.240  0.6740  1.5329  0.9555
 2237SOL     OW16126   6.805   9.201   4.376  0.2728  0.0562  1.0867
 2237SOL    HW116127   6.730   9.234   4.433 -1.6574 -0.2936 -1.1896
 2237SOL    HW216128   6.842   9.277   4.322 -2.0969 -0.7903 -1.8278
 2238SOL     OW16129   2.901   6.763   3.324  0.0231 -0.1141 -0.1191
 2238SOL    HW116130   2.949   6.787   3.239  0.6670 -0.7948  0.0398
 2238SOL    HW216131   2.937   6.818   3.399 -0.2498  0.1917 -0.2164
 2239SOL     OW16132   9.370   4.578   1.289 -0.6551 -0.7450 -0.8073
 2239SOL    HW116133   9.397   4.514   1.218  0.8777 -1.6808  0.5867
 2239SOL    HW216134   9.440   4.649   1.298  1.0151 -2.6617  2.1939
 2240SOL     OW16135   9.897   4.998   0.309 -0.2082 -0.1357 -0.3035
 2240SOL    HW116136   9.816   4.965   0.261 -0.1004  1.4556 -1.6312
 2240SOL    HW216137   9.892   5.098   0.317  1.8791  0.0274 -0.8773
 2241SOL     OW16138   9.797   6.019   3.136  0.2505  0.5017 -0.8255
 2241SOL    HW116139   9.805   6.116   3.111  0.1389  0.9062  0.6427
 2241SOL    HW216140   9.702   6.001   3.165  0.6496  0.3496  0.4335
 2242SOL     OW16141   5.126   6.100   1.315 -0.4471  0.5346 -0.1296
 2242SOL    HW116142   5.175   6.044   1.249 -1.7191 -1.4977  0.6298
 2242SOL    HW216143   5.183   6.114   1.396 -0.7804 -1.1602  0.4183
 2243SOL     OW16144   8.241   5.968   2.001 -0.2136 -0.2294 -0.7219
 2243SOL    HW116145   8.299   6.015   2.068  1.6339  0.0995 -2.4820
 2243SOL    HW216146   8.255   5.870   2.007 -0.1020 -0.2026 -0.5606
 2244SOL     OW16147   8.410   4.980   1.057 -0.3442  0.0582 -0.1495
 2244SOL    HW116148   8.466   5.026   1.126 -0.0846  1.2133 -1.1018
 2244SOL    HW216149   8.466   4.912   1.009  0.1376  0.9220 -0.8205
 2245SOL     OW16150   9.924   7.285   1.689  0.1173 -0.1930 -0.3538
 2245SOL    HW116151   9.875   7.231   1.757 -0.0423 -1.0573 -1.1555
 2245SOL    HW216152   9.860   7.346   1.642 -0.1533 -1.1684 -1.2522
 2247SOL     OW16153   2.046   0.918   1.586 -0.1627  0.1586  0.0807
 2247SOL    HW116154   1.973   0.978   1.552 -1.6546 -0.2617  2.4287
 2247SOL    HW216155   2.133   0.946   1.547 -1.3275  1.8068 -1.3948
 2248SOL     OW16156   9.181   2.321   2.067  0.2274 -0.5081 -0.1760
 2248SOL    HW116157   9.201   2.229   2.099 -0.8308 -0.1967  1.4692
 2248SOL    HW216158   9.122   2.317   1.986  2.0230 -1.2910 -1.4732
 2250SOL     OW16159   1.024   7.318   0.739 -0.4347 -0.3723  0.8944
 2250SOL    HW116160   1.121   7.297   0.753 -0.3295  0.1575  0.9713
 2250SOL    HW216161   0.981   7.336   0.827 -0.3944  0.2858  0.7815
 2251SOL     OW16162   0.146   2.787   2.205  0.0092  0.1641  0.3912
 2251SOL    HW116163   0.189   2.774   2.116  0.4539  1.6516  0.3742
 2251SOL    HW216164   0.058   2.832   2.193 -0.0466  0.1300  0.6783
 2252SOL     OW16165   3.997   1.889   3.546  0.1501  0.3034 -0.2938
 2252SOL    HW116166   3.929   1.956   3.516  1.4183  1.7589  0.0294
 2252SOL    HW216167   4.056   1.865   3.469 -1.8840 -2.4123 -1.0668
 2253SOL     OW16168   7.251   0.081   3.790 -0.3155 -0.2916 -0.5134
 2253SOL    HW116169   7.347   0.075   3.820 -0.6411 -0.5212  0.5135
 2253SOL    HW216170   7.191   0.060   3.867 -1.2697  3.1547 -0.2084
 2254SOL     OW16171   1.901   7.593   2.600 -0.3125  0.3103 -0.2641
 2254SOL    HW116172   1.967   7.591   2.675  0.2207  0.6364 -0.7205
 2254SOL    HW216173   1.831   7.662   2.619  0.5724  1.3465 -0.6907
 2255SOL     OW16174   7.679   2.927   1.521  0.8404 -0.4212  0.0645
 2255SOL    HW116175   7.719   2.848   1.474  0.0887 -1.1279  0.5880
 2255SOL    HW216176   7.747   2.965   1.585  0.7644 -1.4833  0.7956
 2256SOL     OW16177   4.030   7.302   3.957  0.0250  0.1972 -0.0743
 2256SOL    HW116178   3.995   7.355   4.034 -0.9529 -0.7290  0.1426
 2256SOL    HW216179   3.962   7.232   3.931  0.1112  0.8278 -2.1030
 2257SOL     OW16180   2.578   0.436   3.018  0.6723  0.3934 -0.4413
 2257SOL    HW116181   2.607   0.420   3.112  0.0471 -1.4766 -0.5515
 2257SOL    HW216182   2.581   0.351   2.967  2.3029  1.6333 -2.5154
 2258SOL     OW16183   1.677   0.659   0.712  0.3442 -0.0696 -0.6566
 2258SOL    HW116184   1.706   0.634   0.805 -0.8836 -0.8981 -0.4754
 2258SOL    HW216185   1.744   0.721   0.671  0.9543  0.2107  0.7425
 2259SOL     OW16186   8.127   0.696   1.595 -0.0890  0.7308 -0.0484
 2259SOL    HW116187   8.222   0.670   1.575 -0.5742 -0.5416 -0.7368
 2259SOL    HW216188   8.067   0.661   1.524 -1.3160 -0.1393  1.3737
 2260SOL     OW16189   0.210   7.208   1.737 -0.0157  0.5876  0.3428
 2260SOL    HW116190   0.115   7.218   1.709  0.2776  3.1196  0.0678
 2260SOL    HW216191   0.214   7.182   1.834 -0.9756 -1.1806 -0.0765
 2261SOL     OW16192   3.245   2.432   1.321  0.6209  0.2666  0.1792
 2261SOL    HW116193   3.268   2.431   1.418 -0.0496 -1.5569  0.3360
 2261SOL    HW216194   3.321   2.395   1.268  0.5137  0.1167  0.1288
 2262SOL     OW16195   2.203   8.975   0.422  0.1204 -0.2219 -0.6437
 2262SOL    HW116196   2.156   9.021   0.347 -1.2466  1.6761  1.3240
 2262SOL    HW216197   2.278   9.034   0.455 -0.3069 -0.3196  0.5174
 2263SOL     OW16198   0.022   1.207   2.383  0.1675 -0.1705 -0.0139
 2263SOL    HW116199   0.090   1.279   2.368 -1.2235  1.0701 -0.4613
 2263SOL    HW216200  -0.035   1.230   2.462 -1.2144 -0.0676 -1.0206
 2264SOL     OW16201   3.829   3.904   2.601  0.6683 -0.2819 -0.0819
 2264SOL    HW116202   3.783   3.892   2.689  0.7599 -0.6854 -0.0901
 2264SOL    HW216203   3.898   3.975   2.609 -1.4419  1.9115 -0.6193
 2265SOL     OW16204   8.709   8.023   0.952 -0.2941 -0.2642  0.2114
 2265SOL    HW116205   8.703   8.043   0.854  1.3043 -2.0011 -0.2750
 2265SOL    HW216206   8.701   7.925   0.967 -1.6645  0.0866  1.9461
 2266SOL     OW16207   6.553   7.511   2.211 -0.0567  0.2453  0.1800
 2266SOL    HW116208   6.534   7.526   2.114 -1.3371  1.2846  0.5892
 2266SOL    HW216209   6.468   7.498   2.261  0.4444  1.9366  1.5269
 2267SOL     OW16210   1.182   8.250   4.317 -0.0736  0.1626  0.2998
 2267SOL    HW116211   1.280   8.250   4.340  0.1890 -0.2713 -0.7791
 2267SOL    HW216212   1.156   8.160   4.283 -0.5706  0.6258 -0.5640
 2268SOL     OW16213   0.641   5.340   2.872  0.2742  0.5114  0.0875
 2268SOL    HW116214   0.617   5.434   2.898 -0.4959  0.5336 -0.7039
 2268SOL    HW216215   0.678   5.339   2.779 -0.2272 -0.0423 -0.1112
 2270SOL     OW16216   2.287   4.211   0.974  0.5219 -0.3266  0.3924
 2270SOL    HW116217   2.299   4.273   1.051 -0.7315  0.8036 -0.3117
 2270SOL    HW216218   2.190   4.194   0.959  0.7921 -1.2316 -0.3999
 2271SOL     OW16219   1.593   8.386   3.076  0.2396  0.0095  0.4286
 2271SOL    HW116220   1.519   8.445   3.109  2.6823  2.2008  2.1315
 2271SOL    HW216221   1.639   8.430   2.999  3.2965  1.3600  2.9020
 2272SOL     OW16222   2.521   7.143   3.956 -0.3724  0.5853 -0.2784
 2272SOL    HW116223   2.555   7.138   3.862 -1.2269  1.2185 -0.6292
 2272SOL    HW216224   2.509   7.050   3.991  2.0981  0.3452  0.0175
 2274SOL     OW16225   2.529   0.251   2.798 -0.0178  0.6601  0.0084
 2274SOL    HW116226   2.627   0.272   2.793  0.0596 -0.0238 -1.5890
 2274SOL    HW216227   2.500   0.207   2.713 -1.6120  0.4037  0.6706
 2275SOL     OW16228   0.208   9.334   0.142  0.2577  0.2679 -0.1614
 2275SOL    HW116229   0.203   9.424   0.185  1.6314  0.9225 -1.3306
 2275SOL    HW216230   0.251   9.342   0.053 -0.8903 -1.3530 -0.8926
 2276SOL     OW16231   2.927   4.546   2.068  0.5592  0.1237  0.1586
 2276SOL    HW116232   2.939   4.534   1.969 -0.2660  2.7335 -0.2845
 2276SOL    HW216233   3.016   4.561   2.110  1.0016 -1.7493 -0.0435
 2277SOL     OW16234   0.313   7.059   4.126  0.4392 -0.2857 -0.0785
 2277SOL    HW116235   0.391   7.116   4.154 -0.8061  0.1439  2.6040
 2277SOL    HW216236   0.340   7.004   4.047  2.9554  1.0413 -0.2108
 2278SOL     OW16237   0.507   9.714   4.161  0.8372  0.0692 -0.0752
 2278SOL    HW116238   0.452   9.797   4.151  1.5455  0.5297 -0.1978
 2278SOL    HW216239   0.505   9.662   4.075  1.0468  0.3676 -0.2606
 2281SOL     OW16240   4.503   0.971   2.892  0.3938  0.3572  0.3598
 2281SOL    HW116241   4.413   0.994   2.929  0.8847  1.7519  0.7377
 2281SOL    HW216242   4.504   0.877   2.860 -0.7962 -0.0722  1.5864
 2282SOL     OW16243   5.285   8.453   1.679 -0.7447 -0.1421 -0.0878
 2282SOL    HW116244   5.215   8.513   1.641 -1.2379 -1.0602 -0.6323
 2282SOL    HW216245   5.307   8.381   1.613  0.3022 -0.1896  0.3059
 2284SOL     OW16246   1.042   1.720   1.902  0.2685 -0.3556 -0.2276
 2284SOL    HW116247   1.009   1.730   1.808 -2.4649 -0.2947  0.6924
 2284SOL    HW216248   1.049   1.622   1.924 -1.9848 -0.4056  0.4248
 2285SOL     OW16249   0.225   0.070   2.928 -0.3620  0.0354 -0.3448
 2285SOL    HW116250   0.152   0.026   2.876 -0.2023 -0.9506  0.2655
 2285SOL    HW216251   0.199   0.165   2.948 -2.0522 -0.7052  1.0147
 2287SOL     OW16252   8.507   3.821   3.205  0.2527 -0.3912  0.0608
 2287SOL    HW116253   8.431   3.769   3.166  1.2102 -1.7617 -0.0225
 2287SOL    HW216254   8.541   3.773   3.286  1.4769 -0.1460 -0.3115
 2288SOL     OW16255   1.215   2.039   2.127  0.1679 -0.3201  0.0792
 2288SOL    HW116256   1.213   1.966   2.195  0.7059 -0.4113 -0.0086
 2288SOL    HW216257   1.197   2.127   2.173 -3.1827 -0.7870 -0.1920
 2289SOL     OW16258   1.497   8.078   3.344  0.0726 -0.3570 -1.1306
 2289SOL    HW116259   1.499   7.984   3.309  0.3165 -0.9639  0.4455
 2289SOL    HW216260   1.584   8.122   3.326  0.4349 -0.8901 -0.6913
 2290SOL     OW16261   9.077   7.956   2.638  0.4196  0.4068 -0.7728
 2290SOL    HW116262   9.038   8.000   2.558 -2.0468  0.8555  0.6392
 2290SOL    HW216263   9.010   7.955   2.712  2.7209  0.2097  1.3761
 2291SOL     OW16264   3.266   1.634   0.860  0.8150 -0.2902  0.2358
 2291SOL    HW116265   3.271   1.572   0.938  0.9747  0.2712  0.6754
 2291SOL    HW216266   3.301   1.588   0.778 -1.5677 -1.7019 -0.0377
 2293SOL     OW16267   1.993   4.349   2.365 -0.3931  0.0847 -0.0444
 2293SOL    HW116268   1.916   4.365   2.303  0.9299  0.8770 -1.5595
 2293SOL    HW216269   2.052   4.430   2.365  0.3914 -0.4755  1.1483
 2294SOL     OW16270   8.666   3.184   0.836 -0.1521  0.4176  1.1929
 2294SOL    HW116271   8.661   3.141   0.927  1.3487  0.1400  1.1503
 2294SOL    HW216272   8.582   3.236   0.820 -0.9379 -0.4813  2.2641
 2298SOL     OW16273   2.492   9.426   1.658  0.3926 -0.2915  0.5815
 2298SOL    HW116274   2.454   9.404   1.568  0.7640 -0.7931  0.5454
 2298SOL    HW216275   2.588   9.452   1.647 -0.8279  4.4611  0.2045
 2299SOL     OW16276   1.439   4.186   2.884 -0.7299  0.0758  0.3115
 2299SOL    HW116277   1.448   4.158   2.980 -0.9470 -0.2581  0.2351
 2299SOL    HW216278   1.501   4.131   2.828  0.1015  0.9164  0.3752
 2300SOL     OW16279   7.232   7.661   1.926 -0.1545  0.1221 -0.2907
 2300SOL    HW116280   7.156   7.632   1.984 -0.6831  0.5422 -0.7731
 2300SOL    HW216281   7.233   7.761   1.920 -0.2863  0.0670 -1.2622
 2301SOL     OW16282   5.043   8.013   2.981 -0.0392  0.0666  0.0413
 2301SOL    HW116283   5.022   7.943   3.049  0.8319  0.6176  0.9022
 2301SOL    HW216284   5.077   7.970   2.898 -0.7781 -0.5955  0.0801
 2302SOL     OW16285   0.392   6.717   0.406 -0.5241  0.0708 -0.0539
 2302SOL    HW116286   0.394   6.797   0.466 -0.5445  0.4890 -0.6089
 2302SOL    HW216287   0.362   6.637   0.458 -0.9084  0.5102  0.4066
 2303SOL     OW16288   0.048   4.619   3.555  0.0638  0.0230 -0.4615
 2303SOL    HW116289   0.089   4.701   3.516  0.6251 -0.1516 -0.2538
 2303SOL    HW216290   0.120   4.562   3.595 -0.0947 -1.4593 -2.2552
 2304SOL     OW16291   2.762   1.412   0.139  0.2748 -0.1005  0.1180
 2304SOL    HW116292   2.723   1.399   0.230  0.1017  0.9855  0.2073
 2304SOL    HW216293   2.700   1.375   0.070  0.8408 -1.7979  0.4784
 2305SOL     OW16294   1.211   6.682   4.243  0.0415  0.8254  0.0487
 2305SOL    HW116295   1.219   6.662   4.340 -0.3269  0.3873 -0.0101
 2305SOL    HW216296   1.168   6.772   4.231 -1.2768  0.2285  0.2697
 2306SOL     OW16297   4.405   8.165   4.015  0.1215  0.5965 -0.3757
 2306SOL    HW116298   4.367   8.253   4.041 -1.0233  0.1972 -0.6556
 2306SOL    HW216299   4.437   8.169   3.920 -2.6050 -0.0905 -1.3911
 2307SOL     OW16300   5.670   8.379   2.004 -0.1121 -1.1407 -0.6729
 2307SOL    HW116301   5.702   8.414   1.916  1.1388  0.6921  0.4681
 2307SOL    HW216302   5.576   8.410   2.021  1.2007  2.4035  0.6243
 2308SOL     OW16303   1.252   1.196   4.243  0.0371 -0.0053 -0.2016
 2308SOL    HW116304   1.217   1.103   4.252  1.7577 -0.6465  0.1280
 2308SOL    HW216305   1.340   1.194   4.195  1.0560  1.2328  1.5519
 2309SOL     OW16306   1.771   0.693   2.487  0.1479 -0.3854 -0.7027
 2309SOL    HW116307   1.701   0.763   2.502 -0.0988 -1.0150  1.2899
 2309SOL    HW216308   1.772   0.667   2.391 -0.6248  1.4404 -1.2327
 2310SOL     OW16309   8.713   6.462   0.341  0.1252  0.0770 -0.0896
 2310SOL    HW116310   8.709   6.557   0.309  2.3733 -0.1075 -1.0511
 2310SOL    HW216311   8.737   6.460   0.438 -0.3161  0.5012  0.0293
 2311SOL     OW16312   3.893   7.040   2.748  0.3756  0.1013 -0.2816
 2311SOL    HW116313   3.933   6.974   2.812 -1.2019 -1.8510 -1.2647
 2311SOL    HW216314   3.836   6.992   2.681 -0.3051  2.4095 -1.4195
 2312SOL     OW16315   2.743   5.340   2.555  0.5390 -0.0797  0.1838
 2312SOL    HW116316   2.788   5.424   2.583 -0.3785  0.7666 -0.8641
 2312SOL    HW216317   2.798   5.262   2.586 -0.3034  0.7645  4.1379
 2313SOL     OW16318   4.807   7.319   1.877 -0.1928 -1.2366 -0.1176
 2313SOL    HW116319   4.827   7.240   1.936  0.1977 -1.1419 -0.1214
 2313SOL    HW216320   4.709   7.340   1.882 -0.1152 -1.0477  0.7243
 2315SOL     OW16321   8.740   7.385   4.033  0.1000  0.1964 -0.0565
 2315SOL    HW116322   8.811   7.334   3.985  0.3535  1.4100 -0.9822
 2315SOL    HW216323   8.751   7.483   4.017 -1.8924  0.3984 -0.4001
 2316SOL     OW16324   7.989   0.140   2.617  0.0380 -0.1142 -0.6335
 2316SOL    HW116325   7.920   0.081   2.659  0.2923 -0.7467 -1.0819
 2316SOL    HW216326   7.957   0.235   2.616 -0.5287 -0.3023 -0.2222
 2318SOL     OW16327   0.195   4.130   1.597 -0.1276  0.0362 -0.1735
 2318SOL    HW116328   0.115   4.105   1.542  0.8913 -0.1394 -1.6085
 2318SOL    HW216329   0.238   4.046   1.632 -0.8101  0.1499  0.9759
 2319SOL     OW16330   7.692   6.261   2.371  0.2750 -0.7682 -0.0332
 2319SOL    HW116331   7.764   6.296   2.431  0.7714 -0.1920 -0.9379
 2319SOL    HW216332   7.709   6.293   2.277 -2.1514  0.8300  0.0358
 2323SOL     OW16333   0.145   2.599   0.821  0.5924 -0.9423  0.5290
 2323SOL    HW116334   0.203   2.567   0.896 -1.1453  0.2476  2.4606
 2323SOL    HW216335   0.049   2.588   0.847 -0.0276  0.3663 -1.1296
 2324SOL     OW16336   9.269   6.877   1.398 -0.6165  0.4576 -0.0512
 2324SOL    HW116337   9.280   6.795   1.453 -0.4174 -0.3186 -1.2384
 2324SOL    HW216338   9.200   6.936   1.440 -0.7261 -0.2806  0.8278
 2327SOL     OW16339   2.218   1.439   1.759 -0.2240 -0.3856  0.1073
 2327SOL    HW116340   2.220   1.339   1.755  1.7265 -0.2397 -3.6779
 2327SOL    HW216341   2.128   1.471   1.730  0.0333 -0.9660 -1.3759
 2329SOL     OW16342   9.803   9.063   0.211 -0.1029 -0.0594 -0.1088
 2329SOL    HW116343   9.850   8.977   0.232 -0.9586 -0.6663 -0.6509
 2329SOL    HW216344   9.711   9.043   0.175 -1.0087  1.1204  1.4976
 2330SOL     OW16345   9.894   6.385   2.442  0.5516  1.1144  0.0522
 2330SOL    HW116346   9.894   6.333   2.357 -0.3217  0.5690  0.3781
 2330SOL    HW216347   9.852   6.475   2.427 -0.7033  0.5592  0.1683
 2331SOL     OW16348   0.244   9.837   4.332 -0.1070 -0.1091  0.0102
 2331SOL    HW116349   0.148   9.840   4.361 -0.5512 -0.8504 -1.3557
 2331SOL    HW216350   0.302   9.817   4.412 -1.1477 -0.4099  0.7093
 2332SOL     OW16351   1.729   2.789   3.868  0.6397  0.0857  0.2117
 2332SOL    HW116352   1.699   2.878   3.902 -0.0767 -0.0794  0.0072
 2332SOL    HW216353   1.820   2.769   3.904 -0.3772 -0.4038  2.6254
 2333SOL     OW16354   3.855   7.521   0.979  0.4458 -0.2716  0.2662
 2333SOL    HW116355   3.859   7.507   0.880 -0.5670 -2.1624  0.4570
 2333SOL    HW216356   3.777   7.471   1.016 -1.7934  3.9189  1.4874
 2334SOL     OW16357   2.970   4.251   3.572  0.9648 -0.2207 -0.4631
 2334SOL    HW116358   2.917   4.172   3.604 -1.1861  0.0706 -3.1417
 2334SOL    HW216359   2.999   4.236   3.478  2.1688  1.4115 -0.3726
 2335SOL     OW16360   6.565   9.782   3.226 -0.0165  0.0793 -0.2570
 2335SOL    HW116361   6.633   9.838   3.274 -0.1479  0.5248 -0.5823
 2335SOL    HW216362   6.565   9.690   3.265  1.1491 -0.0831 -0.6105
 2336SOL     OW16363   1.467   3.528   3.575 -0.2179  0.2197  0.4721
 2336SOL    HW116364   1.507   3.576   3.497  0.8425  0.5387  1.1988
 2336SOL    HW216365   1.372   3.506   3.555 -0.1850  0.9905 -0.5965
 2337SOL     OW16366   6.937   1.215   3.298 -0.6062 -0.0179 -0.2086
 2337SOL    HW116367   6.948   1.274   3.218 -0.2559  0.8669  0.4831
 2337SOL    HW216368   6.965   1.265   3.380  2.0324 -1.9472  0.1279
 2339SOL     OW16369   5.135   8.874   1.341  0.1988 -0.0626  0.2194
 2339SOL    HW116370   5.219   8.860   1.289 -0.8839  2.2952 -2.3012
 2339SOL    HW216371   5.146   8.954   1.401 -0.8200  1.4272 -1.5239
 2340SOL     OW16372   8.610   6.636   1.431 -0.5772 -0.2965  0.2221
 2340SOL    HW116373   8.536   6.570   1.435 -0.7171 -0.1325  0.3519
 2340SOL    HW216374   8.601   6.692   1.349 -0.8579  0.0284  0.4743
 2342SOL     OW16375   2.539   5.594   0.392 -0.3988 -0.7711  0.2797
 2342SOL    HW116376   2.485   5.579   0.475 -0.3999  0.9988  0.6200
 2342SOL    HW216377   2.634   5.566   0.408 -0.1947  0.4112  1.1845
 2343SOL     OW16378   1.063   2.839   3.572  0.2180 -0.1517  0.6941
 2343SOL    HW116379   1.089   2.825   3.476 -1.3845 -0.7195  0.3306
 2343SOL    HW216380   1.128   2.902   3.615  0.8360  0.2737 -0.8248
 2344SOL     OW16381   8.295   3.457   3.752 -0.4372  0.2763  0.4126
 2344SOL    HW116382   8.338   3.445   3.841 -0.2037 -1.0104  0.1368
 2344SOL    HW216383   8.211   3.402   3.748 -0.0635 -0.2436 -0.4089
 2345SOL     OW16384   4.747   3.472   0.539  0.3137  0.0463  0.1287
 2345SOL    HW116385   4.676   3.531   0.500  1.4057  0.5216 -1.1895
 2345SOL    HW216386   4.752   3.387   0.486  0.7084  0.0093  0.2295
 2346SOL     OW16387   1.325   8.897   3.503  0.0293  0.3633 -0.5265
 2346SOL    HW116388   1.421   8.926   3.510  0.5289 -1.2524 -0.3476
 2346SOL    HW216389   1.318   8.820   3.440 -0.7955 -1.0010  1.1833
 2347SOL     OW16390   8.068   5.851   0.730  0.2829  0.5259  0.2348
 2347SOL    HW116391   8.137   5.824   0.663  0.0834  0.9957 -0.1590
 2347SOL    HW216392   8.072   5.950   0.744  0.2155  0.4479  0.7966
 2350SOL     OW16393   1.558   3.016   2.065  0.2099  0.3535 -0.1163
 2350SOL    HW116394   1.639   2.971   2.027  0.9102  2.3201 -1.0245
 2350SOL    HW216395   1.477   2.987   2.013  0.7791  0.8381 -1.3126
 2351SOL     OW16396   3.444   8.302   2.755  0.1257 -0.3357  0.2210
 2351SOL    HW116397   3.517   8.239   2.781 -0.8747 -1.1622  1.1327
 2351SOL    HW216398   3.380   8.312   2.832 -1.5601 -0.8948 -1.0623
 2352SOL     OW16399   4.498   7.761   1.722 -0.2092 -0.2462  0.0214
 2352SOL    HW116400   4.401   7.737   1.717 -0.1645 -0.6266  0.8895
 2352SOL    HW216401   4.507   7.856   1.754 -0.4253  1.4616 -4.5387
 2353SOL     OW16402   7.113   8.472   1.500  0.0193 -0.2213  0.1480
 2353SOL    HW116403   7.199   8.447   1.544  1.0453  1.2913 -0.9010
 2353SOL    HW216404   7.070   8.391   1.461  1.6294 -0.8192 -0.4297
 2354SOL     OW16405   4.164   2.530   4.337  0.6428  0.2751  0.2388
 2354SOL    HW116406   4.107   2.530   4.419  1.1000 -0.7161  0.5663
 2354SOL    HW216407   4.209   2.619   4.328 -0.0692  0.6768  0.5931
 2355SOL     OW16408   2.127   7.231   0.850  0.1630  0.2412 -0.3017
 2355SOL    HW116409   2.137   7.305   0.917 -0.1498  0.4756 -0.5097
 2355SOL    HW216410   2.183   7.153   0.878  0.9831  0.7832 -0.4059
 2357SOL     OW16411   1.248   6.295   2.133 -0.1709 -0.3905 -0.3266
 2357SOL    HW116412   1.300   6.381   2.133  0.7741 -0.9516  0.1761
 2357SOL    HW216413   1.187   6.294   2.212  0.3338 -0.4781  0.0706
 2358SOL     OW16414   3.401   9.455   2.881  0.0627  0.7651 -0.6248
 2358SOL    HW116415   3.369   9.361   2.885 -0.9849  1.1186 -0.5299
 2358SOL    HW216416   3.411   9.483   2.786 -0.1356  0.7183 -0.6602
 2359SOL     OW16417   7.325   8.425   4.030 -0.6281  0.1916  0.2716
 2359SOL    HW116418   7.269   8.361   4.084 -3.0336  0.4617 -1.7770
 2359SOL    HW216419   7.363   8.376   3.951 -0.0062  0.5899  0.3299
 2360SOL     OW16420   8.663   3.595   3.810  0.7351  0.7636  0.2372
 2360SOL    HW116421   8.647   3.497   3.824 -2.5345  1.2751  0.6424
 2360SOL    HW216422   8.691   3.638   3.896 -1.3899  0.7664  0.9622
 2361SOL     OW16423   2.304   2.460   2.050 -0.1967  0.2307 -0.5724
 2361SOL    HW116424   2.392   2.482   2.008  0.0164 -1.8025 -1.2793
 2361SOL    HW216425   2.279   2.532   2.114  1.9156  0.9137 -0.4573
 2362SOL     OW16426   4.776   9.293   1.664  0.3451 -0.4779  0.1954
 2362SOL    HW116427   4.833   9.211   1.671  1.9789  0.5853 -0.3831
 2362SOL    HW216428   4.729   9.309   1.751 -0.1968 -2.1688  0.2237
 2363SOL     OW16429   0.619   3.231   3.283  0.1265  0.1637 -0.3441
 2363SOL    HW116430   0.521   3.251   3.291  0.2824  0.7166  0.2230
 2363SOL    HW216431   0.672   3.311   3.311  0.7488 -0.4154  0.1596
 2364SOL     OW16432   4.773   1.138   4.194 -0.0926  0.3635 -0.5610
 2364SOL    HW116433   4.787   1.045   4.228 -2.3085  0.3519  0.3402
 2364SOL    HW216434   4.825   1.150   4.109  0.5370 -1.5588 -0.4722
 2365SOL     OW16435   0.656   5.053   1.566  0.2254 -0.1419 -0.4819
 2365SOL    HW116436   0.601   5.109   1.503  3.0095  1.1447 -1.8957
 2365SOL    HW216437   0.645   5.087   1.659 -0.6732  0.6834 -0.8763
 2366SOL     OW16438   5.142   8.099   3.719 -0.2070  0.0100  0.0797
 2366SOL    HW116439   5.089   8.184   3.715  0.1914  0.2887  0.6403
 2366SOL    HW216440   5.105   8.041   3.791  0.2622  0.2157  0.4892
 2367SOL     OW16441   1.556   0.915   2.924 -0.9400  0.4644  0.0654
 2367SOL    HW116442   1.518   0.842   2.869  0.4277 -0.3780  0.2091
 2367SOL    HW216443   1.536   0.899   3.021  0.9709 -0.7567  0.2880
 2368SOL     OW16444   9.134   4.814   3.291 -0.3641 -0.6458  0.6563
 2368SOL    HW116445   9.070   4.787   3.219 -1.5354 -0.0944  1.4788
 2368SOL    HW216446   9.131   4.913   3.303  1.8827 -0.4249 -0.4367
 2370SOL     OW16447   1.166   0.574   3.217 -0.1930 -0.2611  0.2707
 2370SOL    HW116448   1.121   0.522   3.289  0.5294  0.3728  1.1866
 2370SOL    HW216449   1.242   0.520   3.179 -1.2011 -1.0102 -0.7395
 2371SOL     OW16450   1.161   7.292   2.098 -0.1824  0.2354 -0.0290
 2371SOL    HW116451   1.105   7.287   2.015  0.1598  0.3335 -0.2671
 2371SOL    HW216452   1.257   7.296   2.072 -0.0775  0.2688  0.3753
 2372SOL     OW16453   2.226   3.912   2.402 -0.3375  0.1575  0.2012
 2372SOL    HW116454   2.243   3.837   2.466  1.5904  1.2044  0.9678
 2372SOL    HW216455   2.132   3.944   2.411 -0.2436 -0.0831  2.1086
 2375SOL     OW16456   3.862   0.626   2.137 -0.2841 -0.4474 -0.1026
 2375SOL    HW116457   3.800   0.674   2.198  0.0577 -0.3231  0.1499
 2375SOL    HW216458   3.858   0.667   2.046  0.0770  0.1232  0.1348
 2376SOL     OW16459   0.650   7.964   3.126 -0.0412  0.3491 -0.0969
 2376SOL    HW116460   0.741   7.920   3.124  0.3624  1.1720  0.1105
 2376SOL    HW216461   0.587   7.905   3.175  0.7994  0.5462  1.2459
 2377SOL     OW16462   8.093   1.628   0.572 -0.0033  0.1226 -0.1980
 2377SOL    HW116463   8.014   1.685   0.551 -0.5948 -1.6515 -3.2062
 2377SOL    HW216464   8.062   1.535   0.592  1.2700 -0.4659 -0.9245
 2378SOL     OW16465   9.632   1.543   2.828 -0.4709 -0.1520  0.4193
 2378SOL    HW116466   9.580   1.628   2.827 -3.3557 -1.8505  0.0281
 2378SOL    HW216467   9.604   1.485   2.752  1.8340 -1.2658  0.3545
 2379SOL     OW16468   7.658   8.240   2.190 -0.5334 -0.6571 -0.0482
 2379SOL    HW116469   7.596   8.256   2.267 -1.0694 -0.8636 -0.4303
 2379SOL    HW216470   7.750   8.271   2.214 -1.0894  1.0013  0.0064
 2383SOL     OW16471   4.032   3.149   4.231 -0.0996 -0.5500 -0.0764
 2383SOL    HW116472   3.971   3.130   4.154 -1.7258 -1.1616  1.3264
 2383SOL    HW216473   4.088   3.068   4.250  0.5493 -0.2833 -0.8049
 2384SOL     OW16474   9.571   4.342   1.545  0.2549  0.2105  0.1542
 2384SOL    HW116475   9.646   4.302   1.597  1.5132  0.2245 -1.6139
 2384SOL    HW216476   9.597   4.433   1.513  0.1208 -0.4137 -1.8075
 2385SOL     OW16477   8.660   6.154   2.196  0.7342 -0.2477 -0.3253
 2385SOL    HW116478   8.715   6.129   2.116 -0.2838  3.2265 -2.2204
 2385SOL    HW216479   8.675   6.250   2.218 -1.0217 -0.4715  2.0727
 2387SOL     OW16480   1.348   2.649   1.568  0.3463  0.5863  0.5032
 2387SOL    HW116481   1.422   2.598   1.526  0.9643  0.2627  1.9457
 2387SOL    HW216482   1.284   2.586   1.611  0.4204  0.9513  1.1643
 2388SOL     OW16483   3.092   3.836   1.424 -0.2905  0.2936 -0.5490
 2388SOL    HW116484   3.038   3.836   1.508 -1.0860 -1.0259 -1.0493
 2388SOL    HW216485   3.189   3.848   1.447 -0.5775  0.6200  0.5065
 2389SOL     OW16486   4.124   2.154   0.930  0.2064 -0.2192  0.2508
 2389SOL    HW116487   4.050   2.221   0.922 -1.7880 -2.6612 -2.5626
 2389SOL    HW216488   4.199   2.180   0.869 -1.3117 -1.4081 -2.2049
 2390SOL     OW16489   4.103   4.293   2.204 -0.4703  0.4679  0.2570
 2390SOL    HW116490   4.101   4.320   2.108 -1.5057  1.4998  0.5694
 2390SOL    HW216491   4.173   4.346   2.252  0.2187 -0.2204  0.0405
 2394SOL     OW16492   3.710   4.904   0.731 -0.3320 -0.3995  0.6713
 2394SOL    HW116493   3.772   4.879   0.658  0.9703  0.1440  1.5709
 2394SOL    HW216494   3.674   4.996   0.715 -0.6312 -0.5785  0.3259
 2395SOL     OW16495   6.916   6.810   4.047  0.0555 -0.5362  0.2434
 2395SOL    HW116496   6.853   6.809   4.125 -0.9414 -1.4819 -0.5523
 2395SOL    HW216497   6.914   6.721   4.002  2.1172 -0.6345  0.3032
 2396SOL     OW16498   2.122   6.838   0.781 -0.6606 -0.4857 -0.3011
 2396SOL    HW116499   2.028   6.873   0.773 -0.4358  0.2383  0.1406
 2396SOL    HW216500   2.175   6.870   0.702  0.0014  1.6740  0.9664
 2397SOL     OW16501   3.526   5.364   4.064 -0.1340  0.0053 -0.1135
 2397SOL    HW116502   3.615   5.361   4.110 -0.2559 -0.9356  0.0577
 2397SOL    HW216503   3.495   5.459   4.059  1.5073  0.5126 -1.3715
 2398SOL     OW16504   9.918   9.638   4.107  0.2637  0.4552 -0.0216
 2398SOL    HW116505   9.966   9.693   4.176 -0.1244 -0.5872  1.1086
 2398SOL    HW216506   9.952   9.662   4.016  1.6332  1.0144  0.6117
 2399SOL     OW16507   7.492   1.240   0.751  0.3866 -0.9019 -0.5974
 2399SOL    HW116508   7.393   1.246   0.739  0.2387 -0.3563  0.8344
 2399SOL    HW216509   7.536   1.305   0.689 -0.3032  0.8664  0.6999
 2400SOL     OW16510   1.258   9.655   2.881  0.2157  0.2907  0.4122
 2400SOL    HW116511   1.311   9.670   2.798  0.3154  1.6242  0.7036
 2400SOL    HW216512   1.165   9.626   2.857  0.0130  1.4224 -0.1900
 2401SOL     OW16513   3.963   0.291   2.605 -0.3009 -0.3016  0.1142
 2401SOL    HW116514   3.917   0.341   2.678 -2.6139 -0.0945 -1.4026
 2401SOL    HW216515   4.046   0.248   2.640 -1.7028 -0.7495  3.0122
 2402SOL     OW16516   9.305   0.123   3.857  0.1034 -0.0789  0.2936
 2402SOL    HW116517   9.254   0.110   3.772 -1.8964 -1.4771  1.6491
 2402SOL    HW216518   9.367   0.046   3.871  1.4694  0.8449 -0.5712
 2404SOL     OW16519   9.700   3.589   2.993 -0.5714 -0.0518 -0.1758
 2404SOL    HW116520   9.767   3.526   2.955 -0.4248  0.4974 -0.8252
 2404SOL    HW216521   9.735   3.627   3.079  0.6284  1.4585 -1.3278
 2405SOL     OW16522   0.367   6.035   0.556  0.6599 -0.3562  0.1906
 2405SOL    HW116523   0.397   5.995   0.469 -0.8625 -1.8661  0.3311
 2405SOL    HW216524   0.417   5.993   0.631  0.5723 -0.4848  0.1781
 2406SOL     OW16525   0.895   6.764   1.330  0.6179 -0.6570  0.1980
 2406SOL    HW116526   0.803   6.732   1.352  0.9121 -1.1184  0.7741
 2406SOL    HW216527   0.903   6.777   1.231 -0.1017 -0.4979  0.1607
 2407SOL     OW16528   0.185   3.269   2.965 -0.0799 -0.5607  0.0035
 2407SOL    HW116529   0.271   3.231   2.933 -0.2340 -0.9523  0.0494
 2407SOL    HW216530   0.112   3.245   2.901 -0.6717 -2.6258  1.3747
 2408SOL     OW16531   1.333   2.718   3.383 -0.4000 -0.2517  0.4830
 2408SOL    HW116532   1.259   2.786   3.381 -0.7608 -0.5983  1.4162
 2408SOL    HW216533   1.342   2.683   3.477 -1.0865 -2.4256 -0.2362
 2409SOL     OW16534   6.532   7.818   1.772  0.5624  0.4062  0.4198
 2409SOL    HW116535   6.450   7.876   1.775 -0.0450 -0.4734  1.0475
 2409SOL    HW216536   6.613   7.875   1.786  0.0074  1.1901  0.4800
 2410SOL     OW16537   8.874   6.768   0.402  0.3014 -0.2967  0.1836
 2410SOL    HW116538   8.842   6.786   0.494 -1.0358 -0.1920 -0.2949
 2410SOL    HW216539   8.827   6.828   0.337 -0.2037 -1.6807 -0.7814
 2411SOL     OW16540   4.068   5.776   1.209  0.3163 -0.4418 -0.3948
 2411SOL    HW116541   4.024   5.847   1.155  1.4700  1.1370  0.7086
 2411SOL    HW216542   4.114   5.817   1.288 -0.3264 -2.5720  1.1439
 2412SOL     OW16543   1.540   5.358   1.350 -0.2969  0.6268  0.2324
 2412SOL    HW116544   1.623   5.332   1.399 -0.2110  1.9942  0.8216
 2412SOL    HW216545   1.481   5.278   1.339  1.1751 -0.3983 -0.3634
 2413SOL     OW16546   1.661   3.145   0.402  0.1590  0.4090 -0.2032
 2413SOL    HW116547   1.692   3.061   0.447  0.4652  0.5809 -0.0893
 2413SOL    HW216548   1.715   3.222   0.435  0.6127  0.4898 -1.1025
 2414SOL     OW16549   3.234   1.222   2.781  0.0125  0.5910 -0.1448
 2414SOL    HW116550   3.328   1.229   2.749 -0.2180  2.4797 -0.4574
 2414SOL    HW216551   3.187   1.150   2.731  0.8390  0.7258 -1.1261
 2415SOL     OW16552   9.283   1.871   3.271 -0.1406 -0.4826  0.0487
 2415SOL    HW116553   9.310   1.791   3.324 -0.3653 -1.8808 -1.8591
 2415SOL    HW216554   9.355   1.893   3.206 -1.2029 -0.8191 -1.2710
 2416SOL     OW16555   6.213   0.930   1.422  0.0408 -0.0182 -0.7868
 2416SOL    HW116556   6.296   0.893   1.464  1.2809  3.1115 -0.3646
 2416SOL    HW216557   6.192   1.019   1.462 -2.1394  0.3343 -2.6119
 2417SOL     OW16558   1.200   1.734   0.178  0.6201  0.7122  0.2602
 2417SOL    HW116559   1.286   1.686   0.159  0.6492  1.5918 -2.0466
 2417SOL    HW216560   1.221   1.821   0.223  0.6807 -0.6294  2.8762
 2418SOL     OW16561   2.892   0.358   1.016 -0.6072 -0.7382 -0.2894
 2418SOL    HW116562   2.930   0.446   1.045  0.7771 -1.1125 -0.9370
 2418SOL    HW216563   2.818   0.374   0.950  1.8100 -0.1235 -2.9280
 2419SOL     OW16564   2.859   0.034   1.992  0.7834  0.0587  0.0515
 2419SOL    HW116565   2.935  -0.025   2.018 -0.2912 -1.5701 -0.4309
 2419SOL    HW216566   2.883   0.130   2.011  2.3210 -0.5694  1.3882
 2420SOL     OW16567   9.139   1.764   4.095  0.5070 -0.3824  0.2333
 2420SOL    HW116568   9.101   1.673   4.113  0.4313 -0.2491  0.7652
 2420SOL    HW216569   9.131   1.785   3.998 -0.1600 -0.6349  0.2332
 2421SOL     OW16570   3.934   6.004   2.290  0.2425 -0.6026  0.1068
 2421SOL    HW116571   3.945   6.087   2.345  0.3581 -0.6484  0.1536
 2421SOL    HW216572   4.001   5.936   2.319  1.3448 -0.0719 -1.1296
 2422SOL     OW16573   1.164   8.680   3.705 -0.3933  0.3786 -0.0621
 2422SOL    HW116574   1.188   8.744   3.632  1.0397 -1.0932 -0.9198
 2422SOL    HW216575   1.233   8.608   3.711 -2.3753 -1.5689  0.3125
 2425SOL     OW16576   1.897   7.534   3.163  0.0916  0.4597  0.2487
 2425SOL    HW116577   1.974   7.494   3.111 -1.1678  0.0426 -1.3349
 2425SOL    HW216578   1.933   7.581   3.244  1.8577 -1.4753  0.6412
 2426SOL     OW16579   9.440   4.718   0.131  0.4001  0.4706 -0.0260
 2426SOL    HW116580   9.423   4.705   0.034 -1.1236  0.2875  0.2511
 2426SOL    HW216581   9.515   4.783   0.144 -0.4638  1.7569 -1.3026
 2427SOL     OW16582   6.430   7.131   2.503  0.2482  0.1734 -0.1752
 2427SOL    HW116583   6.391   7.136   2.411  0.3036 -0.3392 -0.2249
 2427SOL    HW216584   6.528   7.116   2.497  0.1984 -0.2122 -0.0296
 2429SOL     OW16585   3.039   4.555   3.428 -0.4177  0.5260 -0.7027
 2429SOL    HW116586   2.965   4.598   3.376 -1.4030 -0.0305  0.2170
 2429SOL    HW216587   3.008   4.467   3.464  0.6633  0.3320 -0.2298
 2430SOL     OW16588   0.663   5.242   1.200  0.0135  0.4832 -1.1572
 2430SOL    HW116589   0.699   5.205   1.114  0.8598  1.5492 -1.2682
 2430SOL    HW216590   0.604   5.321   1.180 -2.7203 -1.4624 -1.0094
 2431SOL     OW16591   0.733   2.155   0.566 -0.0160  0.0607  0.3400
 2431SOL    HW116592   0.646   2.190   0.600  0.4080  3.2846 -1.5967
 2431SOL    HW216593   0.804   2.171   0.635 -0.6499 -0.9936  1.2337
 2432SOL     OW16594   9.006   2.593   0.351 -0.2266 -0.6066  0.3737
 2432SOL    HW116595   8.914   2.582   0.390 -0.1445  1.8820  1.3791
 2432SOL    HW216596   9.063   2.645   0.415  1.4034 -0.7289 -0.9518
 2434SOL     OW16597   6.611   0.212   0.392  0.1351  0.2505 -0.4799
 2434SOL    HW116598   6.687   0.190   0.332  0.7342 -0.1409  0.4123
 2434SOL    HW216599   6.628   0.175   0.483 -1.7258 -0.9913 -0.6050
 2436SOL     OW16600   5.312   1.485   3.560 -0.1779  0.4676  0.0825
 2436SOL    HW116601   5.272   1.409   3.611  0.4653 -0.3001 -0.5433
 2436SOL    HW216602   5.272   1.571   3.591 -1.9690 -0.2434 -0.1788
 2437SOL     OW16603   3.541   6.632   3.477 -0.0842 -1.1685  0.6016
 2437SOL    HW116604   3.611   6.701   3.458 -0.6845 -1.4900 -3.1277
 2437SOL    HW216605   3.451   6.669   3.454 -0.6739 -2.3473  1.0055
 2438SOL     OW16606   0.709   3.469   3.352  0.2148 -0.0411 -0.1164
 2438SOL    HW116607   0.676   3.545   3.408  1.1760  0.7588 -0.6159
 2438SOL    HW216608   0.801   3.491   3.317 -0.9061  0.0915 -3.1566
 2439SOL     OW16609   5.602   7.694   3.275 -0.2349 -0.0818  0.0913
 2439SOL    HW116610   5.594   7.789   3.244  1.2357  0.0931  0.2366
 2439SOL    HW216611   5.667   7.645   3.217 -1.3354 -1.1346 -0.2716
 2440SOL     OW16612   7.874   8.667   1.406  0.0702  0.1503 -0.1757
 2440SOL    HW116613   7.887   8.584   1.352  0.3492  1.2929 -1.9018
 2440SOL    HW216614   7.955   8.724   1.400 -0.4468  0.9509  0.3127
 2441SOL     OW16615   9.517   1.617   4.348 -0.3776  0.2140  0.1759
 2441SOL    HW116616   9.479   1.550   4.284  1.3912 -0.6634  0.0048
 2441SOL    HW216617   9.458   1.698   4.350 -2.1931 -1.0597 -0.1172
 2442SOL     OW16618   3.274   8.625   3.941  0.3533 -0.6984  0.3431
 2442SOL    HW116619   3.365   8.638   3.903  0.7812  3.1625  2.4359
 2442SOL    HW216620   3.206   8.666   3.881  0.6100  1.5354  1.5243
 2443SOL     OW16621   1.389   6.416   2.798  0.0016 -0.0900 -0.3957
 2443SOL    HW116622   1.368   6.478   2.722 -0.4552 -0.6958 -0.7742
 2443SOL    HW216623   1.420   6.469   2.877  2.4460  0.4148 -1.6423
 2444SOL     OW16624   8.767   4.866   3.851  0.0195  0.1693 -0.2345
 2444SOL    HW116625   8.825   4.945   3.833  0.0160  0.1834 -0.1865
 2444SOL    HW216626   8.721   4.837   3.766 -0.4862  0.6189 -0.1177
 2445SOL     OW16627   4.719   7.985   1.115  0.3537 -0.0497 -0.1630
 2445SOL    HW116628   4.703   8.072   1.067  1.6132 -0.5259 -1.5114
 2445SOL    HW216629   4.714   7.999   1.213  0.0792  1.4709 -0.3849
 2446SOL     OW16630   2.603   5.224   2.167  0.5751  0.3750 -0.9704
 2446SOL    HW116631   2.695   5.263   2.178  0.3590  0.9547 -1.2464
 2446SOL    HW216632   2.587   5.202   2.071  1.3421 -1.9893 -0.5969
 2448SOL     OW16633   8.142   9.207   1.957  0.5269 -0.1478 -0.4032
 2448SOL    HW116634   8.159   9.252   2.044  1.2460 -1.3915  0.1202
 2448SOL    HW216635   8.057   9.155   1.962  1.1307 -1.1309 -0.0442
 2450SOL     OW16636   9.019   6.593   0.745 -0.7739 -0.0382  0.0160
 2450SOL    HW116637   9.030   6.668   0.811  0.1554 -0.5882  0.5068
 2450SOL    HW216638   9.016   6.506   0.795 -2.2195 -0.3086 -0.5200
 2455SOL     OW16639   8.858   7.149   1.378 -0.1675  0.0444  0.0977
 2455SOL    HW116640   8.867   7.122   1.282 -0.4405 -1.9342  0.6019
 2455SOL    HW216641   8.764   7.177   1.396 -0.1448  0.3073 -0.1906
 2456SOL     OW16642   6.536   8.904   1.287  0.8908 -0.3288  0.0380
 2456SOL    HW116643   6.456   8.846   1.272  1.0078 -0.4377 -0.1788
 2456SOL    HW216644   6.614   8.865   1.237  1.0992 -0.2698  0.3159
 2457SOL     OW16645   4.308   1.792   4.114 -0.3426  0.1237  0.0721
 2457SOL    HW116646   4.249   1.757   4.041 -0.1091  1.2557 -0.6710
 2457SOL    HW216647   4.403   1.792   4.083 -0.0267 -0.9678  0.9900
 2458SOL     OW16648   0.745   6.643   2.717  0.4252 -0.3770 -0.1453
 2458SOL    HW116649   0.692   6.702   2.778  0.1679  0.4077 -1.1167
 2458SOL    HW216650   0.746   6.550   2.753 -1.4632 -0.3652 -0.0255
 2460SOL     OW16651   4.380   2.359   3.176 -0.0258 -0.5295 -0.2216
 2460SOL    HW116652   4.324   2.278   3.194 -0.3844  0.1238  1.6543
 2460SOL    HW216653   4.323   2.441   3.177  0.9934  0.1894  2.1580
 2461SOL     OW16654   9.355   5.949   1.544 -0.0654 -0.1088 -0.1376
 2461SOL    HW116655   9.342   6.046   1.526  0.0207 -0.2102 -0.7390
 2461SOL    HW216656   9.430   5.937   1.609 -0.5332  0.2648  0.4792
 2464SOL     OW16657   1.720   0.376   4.375 -0.6722  0.3823  0.2840
 2464SOL    HW116658   1.765   0.447   4.320 -0.2176 -0.1710 -0.0666
 2464SOL    HW216659   1.760   0.287   4.353 -1.0724  0.0490  0.9010
 2465SOL     OW16660   3.464   2.698   4.324 -0.9284  0.0906  0.1320
 2465SOL    HW116661   3.468   2.610   4.372 -1.0679  0.0566  0.0816
 2465SOL    HW216662   3.543   2.754   4.351 -0.4966 -0.2953 -0.3157
 2466SOL     OW16663   6.547   7.486   2.642 -0.1848  0.0765  0.0413
 2466SOL    HW116664   6.502   7.572   2.620 -2.0720 -1.0041 -0.4580
 2466SOL    HW216665   6.639   7.484   2.601 -0.8250  1.1012 -1.4849
 2467SOL     OW16666   9.792   6.618   0.402  0.3616  0.1406  0.6658
 2467SOL    HW116667   9.798   6.526   0.361  2.3644  0.1705  0.8054
 2467SOL    HW216668   9.858   6.625   0.477 -0.8045  1.2394  1.6109
 2470SOL     OW16669   6.890   0.703   0.776 -0.3941 -0.5088 -0.2767
 2470SOL    HW116670   6.868   0.727   0.681  0.7573 -2.7324 -1.1297
 2470SOL    HW216671   6.812   0.656   0.817 -0.2382 -1.1202 -0.6826
 2472SOL     OW16672   2.790   3.852   4.137  0.3218 -0.5382  0.3361
 2472SOL    HW116673   2.887   3.854   4.160  1.0482 -2.2788 -2.4361
 2472SOL    HW216674   2.757   3.945   4.123  1.3806  0.1126  1.9751
 2473SOL     OW16675   3.082   4.342   0.361  0.2782  0.5869 -0.7290
 2473SOL    HW116676   3.108   4.437   0.348 -0.0438  0.6422 -0.9892
 2473SOL    HW216677   3.073   4.297   0.272  2.2893 -0.2052 -0.5661
 2474SOL     OW16678   9.667   1.744   3.263  0.3229  0.5694  0.0946
 2474SOL    HW116679   9.582   1.710   3.303 -0.0901  0.3851 -0.9419
 2474SOL    HW216680   9.743   1.724   3.325 -0.1829 -0.5606  0.3538
 2476SOL     OW16681   2.643   6.276   0.730 -0.3551  0.0595  0.0673
 2476SOL    HW116682   2.665   6.368   0.764  5.6032 -1.7312  1.6627
 2476SOL    HW216683   2.674   6.268   0.636 -1.2323 -0.2431 -0.1994
 2477SOL     OW16684   8.417   7.448   3.439 -0.0977 -0.4995  0.6654
 2477SOL    HW116685   8.489   7.500   3.392  1.1526 -1.6698  1.2366
 2477SOL    HW216686   8.359   7.403   3.371 -0.3384  0.4881  0.1974
 2478SOL     OW16687   1.357   0.317   4.087  0.1848 -0.3732 -0.6507
 2478SOL    HW116688   1.420   0.385   4.049 -1.6450  1.0930 -1.1574
 2478SOL    HW216689   1.377   0.304   4.184  2.6956 -1.6122 -1.2818
 2479SOL     OW16690   8.714   1.492   2.297  0.4310 -0.1341 -0.1529
 2479SOL    HW116691   8.634   1.507   2.356  1.6044  0.9867  1.1711
 2479SOL    HW216692   8.733   1.576   2.246 -0.4627 -1.0393 -2.0276
 2480SOL     OW16693   1.329   0.613   0.929  0.5662  1.0005 -0.1306
 2480SOL    HW116694   1.367   0.683   0.868  0.1072  0.5032 -0.9789
 2480SOL    HW216695   1.233   0.634   0.948 -0.1191 -0.4062 -1.8858
 2481SOL     OW16696   2.179   7.919   3.710 -0.5040 -0.0582 -0.4393
 2481SOL    HW116697   2.183   8.012   3.745  1.7352 -0.3658  0.2055
 2481SOL    HW216698   2.253   7.905   3.644  1.2979 -2.3196  1.9315
 2482SOL     OW16699   2.309   7.558   1.430 -0.4651  0.4127 -1.0463
 2482SOL    HW116700   2.238   7.621   1.459 -0.3785  1.1481 -2.3829
 2482SOL    HW216701   2.341   7.583   1.338  1.4770  0.0793 -0.4944
 2483SOL     OW16702   8.586   6.795   3.057 -0.3666  0.0278  0.4797
 2483SOL    HW116703   8.638   6.722   3.101 -2.5556 -1.8599  0.0527
 2483SOL    HW216704   8.599   6.881   3.106  2.9699 -0.4157  0.4750
 2484SOL     OW16705   4.085   4.037   0.583  0.1313 -0.3955  0.0100
 2484SOL    HW116706   4.011   4.101   0.566  1.7302  1.7239  0.7716
 2484SOL    HW216707   4.056   3.968   0.648 -0.8344  1.0961  1.1972
 2486SOL     OW16708   0.308   0.380   2.007  0.5292  0.5433  1.0974
 2486SOL    HW116709   0.272   0.295   1.969  1.1795 -0.0407  1.7875
 2486SOL    HW216710   0.282   0.388   2.103 -0.3128  1.5740  0.7971
 2489SOL     OW16711   2.096   8.653   4.115  0.1209 -0.5290  0.3842
 2489SOL    HW116712   2.120   8.639   4.019  0.0671 -0.8858  0.4213
 2489SOL    HW216713   2.081   8.564   4.159  2.0430 -0.4841  1.2075
 2490SOL     OW16714   4.748   0.770   3.353  0.0641  0.1945 -0.3907
 2490SOL    HW116715   4.838   0.813   3.355  1.2937 -2.2541  3.8628
 2490SOL    HW216716   4.684   0.825   3.407  0.0596 -0.0678 -0.1233
 2491SOL     OW16717   8.266   5.069   0.339 -0.4346  0.4675  0.7258
 2491SOL    HW116718   8.239   5.164   0.329 -1.0457  0.0687 -1.5542
 2491SOL    HW216719   8.360   5.064   0.375  0.0453  1.9265 -0.3201
 2492SOL     OW16720   2.436   9.787   1.910  0.1861  0.2121 -0.1001
 2492SOL    HW116721   2.373   9.822   1.841  0.0051 -0.3010 -0.2011
 2492SOL    HW216722   2.483   9.863   1.955 -0.6083  0.6066  0.0701
 2493SOL     OW16723   8.499   0.978   3.350  0.2712  0.2020 -0.3466
 2493SOL    HW116724   8.550   1.033   3.285  1.5645  1.8868  2.0111
 2493SOL    HW216725   8.558   0.906   3.387 -0.1508 -0.1095 -0.2747
 2494SOL     OW16726   1.592   6.986   2.401 -0.2785 -0.3252  0.6277
 2494SOL    HW116727   1.539   7.057   2.447  0.8238  0.0827  1.2859
 2494SOL    HW216728   1.684   7.020   2.381 -0.5049 -0.7472 -1.2281
 2495SOL     OW16729   9.124   3.528   2.420 -0.1373 -0.1470 -0.6540
 2495SOL    HW116730   9.063   3.600   2.387 -0.6940 -0.4054 -0.2132
 2495SOL    HW216731   9.087   3.490   2.505  2.1840  1.7528  1.2933
 2496SOL     OW16732   0.859   2.524   1.495  0.0259  0.5815 -0.1683
 2496SOL    HW116733   0.874   2.622   1.484 -2.1192  0.5710 -4.1294
 2496SOL    HW216734   0.945   2.480   1.520  1.7572  3.0603 -1.5474
 2497SOL     OW16735   7.642   8.919   0.676  0.5648  0.0598  0.3967
 2497SOL    HW116736   7.549   8.886   0.666  1.0960 -0.9730 -1.4232
 2497SOL    HW216737   7.697   8.851   0.724  0.6181  0.2271  0.5722
 2498SOL     OW16738   9.579   7.360   3.091  0.0648 -0.0983 -1.3062
 2498SOL    HW116739   9.672   7.356   3.055  0.4603  0.9104 -0.4252
 2498SOL    HW216740   9.514   7.370   3.015  0.7753  0.4986 -1.8382
 2499SOL     OW16741   1.497   3.624   2.397  0.1369 -0.1869  0.0642
 2499SOL    HW116742   1.429   3.606   2.468 -1.3493  0.6906 -1.0984
 2499SOL    HW216743   1.500   3.722   2.378  3.7209  0.1807  1.9997
 2500SOL     OW16744   9.394   9.205   4.095 -0.2594  0.0661  0.3321
 2500SOL    HW116745   9.382   9.292   4.142  0.9558  0.9138 -0.8904
 2500SOL    HW216746   9.476   9.160   4.130  0.2134  0.3367 -0.4345
 2501SOL     OW16747   3.622   6.809   1.512  0.3418 -0.1254  0.0334
 2501SOL    HW116748   3.691   6.823   1.441  1.5946  0.6299  1.3578
 2501SOL    HW216749   3.561   6.888   1.515  0.8831  0.2834  0.4288
 2502SOL     OW16750   4.130   0.128   3.332  0.0890 -0.1923  0.1600
 2502SOL    HW116751   4.158   0.224   3.341  0.8728 -0.2803 -1.2631
 2502SOL    HW216752   4.044   0.123   3.283 -0.9096 -0.1138  1.8705
 2505SOL     OW16753   4.950   8.468   2.861  0.0340 -0.0722  0.4100
 2505SOL    HW116754   4.945   8.430   2.769  0.7808  1.5925 -0.3488
 2505SOL    HW216755   4.873   8.530   2.875  0.3487  0.2699  0.6225
 2506SOL     OW16756   1.006   4.669   2.814  0.1252 -0.7163 -0.6385
 2506SOL    HW116757   0.906   4.672   2.819  0.1473 -1.3378  0.2641
 2506SOL    HW216758   1.042   4.762   2.805 -0.4612 -0.3655  0.5337
 2507SOL     OW16759   0.147   2.215   0.328 -0.0616 -0.2346  0.0784
 2507SOL    HW116760   0.070   2.168   0.369  0.7226 -1.0131  0.6701
 2507SOL    HW216761   0.115   2.298   0.281 -1.2168 -0.4619  0.4644
 2508SOL     OW16762   2.624   5.673   4.279 -0.0389 -0.3209 -0.1221
 2508SOL    HW116763   2.610   5.580   4.312  0.5431 -0.9632 -1.6262
 2508SOL    HW216764   2.600   5.678   4.182 -0.8306  1.2933  0.1458
 2509SOL     OW16765   5.451   6.907   3.512  0.0175 -0.2082  0.4953
 2509SOL    HW116766   5.484   7.001   3.522 -1.9363  0.5884 -0.1642
 2509SOL    HW216767   5.467   6.876   3.418 -0.5847 -0.0208  0.3281
 2510SOL     OW16768   8.040   8.329   2.711 -0.3663  0.7740  1.0453
 2510SOL    HW116769   8.038   8.392   2.634 -1.5068 -0.7697 -0.2397
 2510SOL    HW216770   8.134   8.297   2.726 -0.4790 -0.7441 -1.2783
 2511SOL     OW16771   3.655   1.478   2.837  0.1942 -0.2503 -0.5143
 2511SOL    HW116772   3.727   1.408   2.844  1.4305  0.5738 -3.8498
 2511SOL    HW216773   3.582   1.457   2.901  3.1133 -1.4557  2.6125
 2512SOL     OW16774   0.441   8.878   2.435  0.0749  0.0090 -0.0925
 2512SOL    HW116775   0.494   8.813   2.380 -1.2707  0.3881 -1.8621
 2512SOL    HW216776   0.439   8.967   2.390 -2.4216 -0.1125 -0.3098
 2513SOL     OW16777   9.891   2.516   4.406  0.0434  0.2902  0.0134
 2513SOL    HW116778   9.952   2.564   4.343 -1.1234  2.1229  0.2539
 2513SOL    HW216779   9.913   2.542   4.500 -1.4461  1.4037  0.0749
 2514SOL     OW16780   6.708   1.075   4.169  0.5186 -0.0725  0.2426
 2514SOL    HW116781   6.795   1.123   4.179  0.1685  0.7863 -0.7165
 2514SOL    HW216782   6.686   1.065   4.072  0.3774 -1.8187  0.4352
 2515SOL     OW16783   9.433   0.868   3.767 -0.3714 -0.1754 -0.0989
 2515SOL    HW116784   9.408   0.821   3.851 -0.8112 -2.0821 -1.2653
 2515SOL    HW216785   9.524   0.838   3.738 -0.4112  0.1271 -0.5390
 2516SOL     OW16786   2.563   5.607   2.226  0.5535 -0.2219  0.3773
 2516SOL    HW116787   2.474   5.564   2.211 -0.3495  2.1494 -1.3331
 2516SOL    HW216788   2.551   5.704   2.247  2.7690  0.3751 -0.9038
 2517SOL     OW16789   2.581   3.581   1.677 -0.4816  0.6190  0.1696
 2517SOL    HW116790   2.547   3.657   1.733 -1.3301 -0.7432  1.5436
 2517SOL    HW216791   2.505   3.540   1.627  0.1545  1.3331 -1.4075
 2518SOL     OW16792   2.604   2.121   0.764 -0.3935 -0.0891  0.1014
 2518SOL    HW116793   2.655   2.178   0.829  1.1213 -0.9510 -0.3063
 2518SOL    HW216794   2.555   2.050   0.813  0.2007 -0.3184  0.3692
 2520SOL     OW16795   0.421   2.911   3.334 -0.0971  0.0813  0.2689
 2520SOL    HW116796   0.458   2.962   3.412 -0.6439  0.4324  0.3013
 2520SOL    HW216797   0.424   2.813   3.355  1.3616  0.0623  0.0227
 2521SOL     OW16798   8.756   2.442   3.287  0.3807  0.1737 -0.4277
 2521SOL    HW116799   8.743   2.520   3.349 -1.0532 -0.2336 -0.1896
 2521SOL    HW216800   8.678   2.436   3.225 -0.3824 -2.1019  0.6988
 2522SOL     OW16801   0.540   0.999   0.585 -0.5598 -0.2295 -0.3445
 2522SOL    HW116802   0.463   1.039   0.535 -1.3295  2.0093  2.4905
 2522SOL    HW216803   0.590   0.936   0.525 -3.8141 -0.7555 -2.6180
 2523SOL     OW16804   2.276   8.038   2.521  0.5838 -0.0742  0.5817
 2523SOL    HW116805   2.284   8.081   2.611 -0.5027  0.4648  0.4222
 2523SOL    HW216806   2.216   8.093   2.463 -0.7000 -1.7251  0.3309
 2524SOL     OW16807   4.046   6.390   1.778  0.3898 -0.2359 -0.0671
 2524SOL    HW116808   4.052   6.483   1.742  0.1377 -0.5475 -0.9261
 2524SOL    HW216809   4.107   6.330   1.727  0.1475 -0.6498  0.1247
 2525SOL     OW16810   2.133   1.466   2.529 -0.1322  0.4009  0.5198
 2525SOL    HW116811   2.074   1.428   2.601  0.4716 -1.3362  0.1432
 2525SOL    HW216812   2.119   1.564   2.522 -2.2105  0.1755  1.1492
 2527SOL     OW16813   3.240   7.620   2.108  0.4485 -0.1548 -0.2362
 2527SOL    HW116814   3.323   7.654   2.153  0.3857  0.0995 -0.3077
 2527SOL    HW216815   3.262   7.539   2.054  0.4661 -0.6162  0.4650
 2528SOL     OW16816   9.326   7.404   2.915 -0.0150  0.3496  0.5380
 2528SOL    HW116817   9.375   7.468   2.975  1.8726  2.1088 -2.7415
 2528SOL    HW216818   9.255   7.454   2.864  1.3950 -0.1340 -1.9757
 2529SOL     OW16819   9.365   4.867   2.541  0.0753  0.1110 -0.0621
 2529SOL    HW116820   9.391   4.820   2.625 -0.4313 -2.3180 -1.1849
 2529SOL    HW216821   9.265   4.873   2.536  0.1057  0.3046 -0.4342
 2530SOL     OW16822   1.498   4.296   1.079  0.2686  0.6361 -0.1481
 2530SOL    HW116823   1.490   4.331   0.986 -0.3266 -0.6546 -0.5963
 2530SOL    HW216824   1.448   4.210   1.087 -0.0008  0.9145  1.4661
 2531SOL     OW16825   1.558   5.866   3.519 -0.6780  0.1432 -0.3032
 2531SOL    HW116826   1.657   5.879   3.519 -0.5175 -0.7241 -2.7995
 2531SOL    HW216827   1.513   5.953   3.498 -0.4384  0.4801  0.5689
 2532SOL     OW16828   0.331   6.101   0.865  0.4371  0.6527 -0.1109
 2532SOL    HW116829   0.261   6.158   0.908  0.9302  0.5256  0.8580
 2532SOL    HW216830   0.396   6.158   0.816  2.0928  1.0923  2.5385
 2533SOL     OW16831   1.452   7.901   0.912 -0.1693  0.6788 -0.1043
 2533SOL    HW116832   1.358   7.935   0.906 -0.5352 -0.4146 -0.7362
 2533SOL    HW216833   1.457   7.830   0.983  0.1778  0.7578 -0.0520
 2535SOL     OW16834   0.076   9.907   2.479  0.5777  0.0229  0.4674
 2535SOL    HW116835   0.167   9.868   2.462  0.5020  0.0083  0.0867
 2535SOL    HW216836   0.046   9.957   2.398  0.5655  0.6596  0.8643
 2536SOL     OW16837   9.925   8.223   1.758  0.4018 -0.1412 -0.0684
 2536SOL    HW116838   9.847   8.277   1.790  2.0364  2.4816 -0.3621
 2536SOL    HW216839   9.987   8.206   1.834 -0.4800 -2.3606  0.2000
 2537SOL     OW16840   1.081   8.030   4.197  0.6361  0.0885  0.8596
 2537SOL    HW116841   1.147   7.956   4.182  0.1572 -0.3394  0.8683
 2537SOL    HW216842   1.008   7.998   4.257 -1.3476 -0.4827 -1.8046
 2538SOL     OW16843   2.930   0.984   0.883  0.0944  0.5260  0.1041
 2538SOL    HW116844   2.954   0.888   0.898 -1.4741  0.0155 -0.5277
 2538SOL    HW216845   2.857   1.010   0.946 -0.4718  0.8870 -0.6895
 2539SOL     OW16846   3.537   6.997   2.032 -0.2010 -0.0469 -0.1365
 2539SOL    HW116847   3.536   7.041   1.943  0.0928 -1.0860 -0.6649
 2539SOL    HW216848   3.488   7.054   2.098 -2.1070 -0.1456 -1.3930
 2540SOL     OW16849   0.910   2.842   4.333 -0.2358 -0.1349  0.0615
 2540SOL    HW116850   0.984   2.865   4.269 -0.7877  0.6513 -0.2982
 2540SOL    HW216851   0.947   2.835   4.425  0.5828 -1.3486 -0.3367
 2541SOL     OW16852   7.283   9.468   2.479 -0.5861  0.2134  0.3224
 2541SOL    HW116853   7.185   9.487   2.469 -0.3866  0.0280 -2.3115
 2541SOL    HW216854   7.336   9.548   2.451  0.0395 -0.2621  0.1383
 2542SOL     OW16855   4.191   5.134   1.838 -0.0951  0.6264  0.0017
 2542SOL    HW116856   4.284   5.145   1.805 -0.1859 -0.4031 -0.6152
 2542SOL    HW216857   4.163   5.038   1.830 -1.6454  1.1417 -0.9956
 2543SOL     OW16858   3.418   0.502   2.671 -0.2141  0.3754 -0.3051
 2543SOL    HW116859   3.436   0.576   2.606 -1.1153 -0.0187 -1.0180
 2543SOL    HW216860   3.332   0.457   2.647 -0.2847 -0.1156  0.8546
 2544SOL     OW16861   3.675   4.398   1.450  0.5289  0.1050  0.3081
 2544SOL    HW116862   3.737   4.393   1.528 -0.4997  0.2185  1.1524
 2544SOL    HW216863   3.727   4.400   1.365  1.6293 -1.3308  0.9378
 2545SOL     OW16864   5.237   1.590   2.024  0.0491  0.7659  0.7792
 2545SOL    HW116865   5.314   1.653   2.019 -0.2462  1.0163 -0.7481
 2545SOL    HW216866   5.267   1.505   2.069  0.9102  1.2818  1.2028
 2546SOL     OW16867   9.170   9.788   1.542 -0.2452  0.4933 -0.1954
 2546SOL    HW116868   9.158   9.820   1.636 -0.9431 -1.9766  0.5897
 2546SOL    HW216869   9.081   9.763   1.503  0.1666  0.4462 -1.1136
 2547SOL     OW16870   7.850   9.583   0.315 -0.4872 -0.2979 -0.1059
 2547SOL    HW116871   7.788   9.622   0.247 -2.8947 -2.1470  0.9292
 2547SOL    HW216872   7.814   9.601   0.407  0.1646 -1.9866  0.4967
 2548SOL     OW16873   1.725   6.073   3.253 -0.1363  0.2779 -0.2119
 2548SOL    HW116874   1.780   5.990   3.249  0.7312  0.9033 -1.6499
 2548SOL    HW216875   1.631   6.052   3.229 -0.1409 -0.4645  0.4317
 2549SOL     OW16876   1.527   8.086   4.029 -0.2322  0.3250 -0.2431
 2549SOL    HW116877   1.522   8.079   4.129  0.1820  1.7241 -0.1083
 2549SOL    HW216878   1.529   7.994   3.989  1.4649 -0.2745  1.1509
 2550SOL     OW16879   7.480   9.828   2.697 -0.3030 -0.3867 -0.4482
 2550SOL    HW116880   7.556   9.795   2.641  0.1107 -0.9391  0.4349
 2550SOL    HW216881   7.464   9.925   2.678  0.2811 -0.3991 -1.0138
 2551SOL     OW16882   1.076   2.854   2.550 -0.2889 -0.7347 -0.1721
 2551SOL    HW116883   1.120   2.909   2.478  0.6478 -1.3719 -0.1025
 2551SOL    HW216884   1.129   2.862   2.635 -1.6156  0.3295  0.5570
 2552SOL     OW16885   2.891   0.229   0.050 -0.1135 -0.0815  0.3246
 2552SOL    HW116886   2.976   0.251   0.098 -0.0197  0.0640  0.0930
 2552SOL    HW216887   2.867   0.134   0.067 -0.1294 -0.0072  0.7358
 2553SOL     OW16888   1.289   6.194   2.923 -0.0125  0.2970 -0.3309
 2553SOL    HW116889   1.314   6.211   3.018 -1.7185 -0.1099  0.2223
 2553SOL    HW216890   1.325   6.267   2.865  1.6049  0.1919  0.5359
 2554SOL     OW16891   2.777   3.356   0.085  0.0287 -0.8421 -0.3842
 2554SOL    HW116892   2.865   3.312   0.064  1.0997  0.1974  1.7032
 2554SOL    HW216893   2.749   3.413   0.008  0.9870 -1.4814 -1.2261
 2555SOL     OW16894   7.920   8.295   2.288  0.0830 -0.3293  0.3310
 2555SOL    HW116895   8.018   8.315   2.285 -0.0683  1.2522  3.5185
 2555SOL    HW216896   7.904   8.209   2.337 -0.1754  0.2064  1.2098
 2556SOL     OW16897   2.534   5.003   0.755 -0.2177  0.2679  0.4350
 2556SOL    HW116898   2.512   5.071   0.825  0.2416 -0.3496  1.1785
 2556SOL    HW216899   2.630   5.012   0.729  0.0958 -0.7060  1.2175
 2558SOL     OW16900   8.507   5.208   0.893 -0.0746  0.3047  0.2518
 2558SOL    HW116901   8.523   5.298   0.934  0.0402 -0.5904  2.2541
 2558SOL    HW216902   8.474   5.145   0.964 -2.0553 -0.7145 -1.5357
 2559SOL     OW16903   5.744   0.065   3.285  0.1082  0.5606 -0.1236
 2559SOL    HW116904   5.834   0.041   3.321  0.6645  2.5318 -0.1011
 2559SOL    HW216905   5.678  -0.006   3.307  1.7921 -1.1822 -0.6333
 2560SOL     OW16906   9.212   1.359   4.362 -0.6075  0.0627 -0.7357
 2560SOL    HW116907   9.182   1.453   4.377  0.9175  0.0293  3.2116
 2560SOL    HW216908   9.170   1.299   4.430  3.0302 -1.0610  0.6604
 2561SOL     OW16909   7.697   4.073   4.267 -0.0052 -0.5238  0.0194
 2561SOL    HW116910   7.673   4.018   4.347 -1.9587 -0.7285 -0.6886
 2561SOL    HW216911   7.764   4.142   4.293 -0.3970 -0.7819  1.7640
 2562SOL     OW16912   2.529   6.482   2.985 -0.6604  0.1194  0.1156
 2562SOL    HW116913   2.519   6.530   3.072 -1.3239  0.7330 -0.2920
 2562SOL    HW216914   2.471   6.400   2.986  0.0444 -0.3809  0.5981
 2563SOL     OW16915   3.704   5.994   2.147 -0.6901  0.5017  0.4425
 2563SOL    HW116916   3.778   5.979   2.213  0.2974  3.0048 -0.0528
 2563SOL    HW216917   3.632   5.926   2.162  0.8797 -0.8439  2.1172
 2564SOL     OW16918   0.381   3.288   3.999  0.1752 -0.1663 -0.0074
 2564SOL    HW116919   0.343   3.221   3.936  0.7047  0.5861 -1.1457
 2564SOL    HW216920   0.439   3.352   3.949  2.5990 -1.0036  1.5999
 2565SOL     OW16921   2.634   1.055   3.991 -0.0857  0.0539 -0.2713
 2565SOL    HW116922   2.671   1.123   4.054 -0.9408  0.1193  0.1631
 2565SOL    HW216923   2.555   1.010   4.033 -0.4434 -0.1478 -1.1592
 2566SOL     OW16924   1.083   2.385   1.520 -0.4574  0.1799  0.0834
 2566SOL    HW116925   1.142   2.436   1.458  0.7344 -0.4287  0.6848
 2566SOL    HW216926   1.117   2.397   1.614 -1.2346 -0.2608  0.4184
 2567SOL     OW16927   8.907   2.937   2.794  0.5040  0.0014 -0.0074
 2567SOL    HW116928   8.952   3.008   2.848 -1.2600  0.0924  1.3966
 2567SOL    HW216929   8.859   2.980   2.717  1.3064  0.0890 -0.4622
 2568SOL     OW16930   7.501   9.378   3.987  0.0837  0.1219  0.4368
 2568SOL    HW116931   7.464   9.360   4.078 -0.3866 -0.4374  0.1367
 2568SOL    HW216932   7.538   9.294   3.948 -0.8977  0.0726 -0.4166
 2569SOL     OW16933   0.491   6.792   1.830 -0.6218 -0.1904 -0.3288
 2569SOL    HW116934   0.442   6.711   1.863 -0.5128  0.7595  2.2569
 2569SOL    HW216935   0.429   6.848   1.775 -0.9620 -1.5407 -1.3427
 2570SOL     OW16936   2.768   9.739   0.701 -0.5737  0.2404 -0.2777
 2570SOL    HW116937   2.765   9.640   0.719 -0.5453  0.1735 -0.6332
 2570SOL    HW216938   2.727   9.757   0.612  0.0466  0.4755 -0.5167
 2571SOL     OW16939   4.122   3.662   0.263 -0.2999  0.0176  0.2087
 2571SOL    HW116940   4.108   3.761   0.266 -1.9127 -0.2232  0.6484
 2571SOL    HW216941   4.059   3.620   0.198  0.1626 -0.7722  0.2514
 2572SOL     OW16942   0.438   7.471   3.213 -0.4324 -0.2629  0.4332
 2572SOL    HW116943   0.351   7.496   3.255  0.4196  1.7481  1.0950
 2572SOL    HW216944   0.506   7.456   3.285  0.3368  0.4709 -0.1308
 2573SOL     OW16945   0.665   8.307   3.917  0.7754 -0.7129 -0.2544
 2573SOL    HW116946   0.608   8.284   3.838 -0.6330  0.1122  0.5099
 2573SOL    HW216947   0.714   8.392   3.899  1.1756 -1.0160 -0.6051
 2575SOL     OW16948   8.627   0.911   4.257  0.0581  0.0328  0.0478
 2575SOL    HW116949   8.663   0.985   4.314  1.1945 -0.3469 -0.1741
 2575SOL    HW216950   8.683   0.901   4.175 -1.1823  0.1358 -0.8295
 2577SOL     OW16951   9.088   7.510   3.737 -0.6045 -0.6458 -0.2343
 2577SOL    HW116952   9.037   7.485   3.655  1.7980 -0.9229 -1.6798
 2577SOL    HW216953   9.175   7.460   3.739  1.7699  3.3292 -0.2825
 2578SOL     OW16954   7.625   7.019   2.135  0.4100  0.6185 -0.4688
 2578SOL    HW116955   7.592   7.101   2.087 -0.9268  0.5092  0.2328
 2578SOL    HW216956   7.673   7.046   2.218 -0.3484  0.6938 -0.0468
 2581SOL     OW16957   0.607   8.227   3.117  0.2866  0.3051 -0.4244
 2581SOL    HW116958   0.516   8.243   3.154  0.2791  0.7249 -0.6226
 2581SOL    HW216959   0.616   8.130   3.092 -0.1056  0.2635 -0.4081
 2583SOL     OW16960   8.611   4.032   3.981 -0.3882 -0.1912  0.3283
 2583SOL    HW116961   8.700   3.989   3.996  0.2783  0.1815 -2.2772
 2583SOL    HW216962   8.539   3.964   3.995  0.3432 -0.6896  1.7168
 2584SOL     OW16963   2.564   5.258   1.105 -0.4453  0.6477  0.0622
 2584SOL    HW116964   2.550   5.235   1.202 -0.2170  1.0516  0.1925
 2584SOL    HW216965   2.527   5.185   1.048  1.7578 -0.8682  0.4994
 2585SOL     OW16966   4.827   3.793   0.183  0.3013  0.7474 -0.3086
 2585SOL    HW116967   4.865   3.764   0.095  1.3174  3.2163 -0.7198
 2585SOL    HW216968   4.730   3.817   0.171  0.7249  2.1372 -1.0009
 2586SOL     OW16969   2.455   1.535   0.948 -0.2870 -0.0692  0.1042
 2586SOL    HW116970   2.396   1.466   0.906  0.6836 -0.2815 -0.9404
 2586SOL    HW216971   2.534   1.551   0.889  0.7470  0.1379  1.5189
 2587SOL     OW16972   0.568   4.013   2.660 -0.0201  0.0722 -0.3836
 2587SOL    HW116973   0.615   3.965   2.734 -2.4275  1.9909  2.5783
 2587SOL    HW216974   0.481   3.967   2.641  0.0755  0.2355 -1.2150
 2589SOL     OW16975   0.476   2.109   2.551  0.2394 -0.4510 -0.0063
 2589SOL    HW116976   0.540   2.036   2.527  0.4316 -0.1990 -0.2480
 2589SOL    HW216977   0.489   2.187   2.491 -0.8147 -0.6874 -0.5610
 2590SOL     OW16978   5.045   2.912   2.887 -0.1047 -0.1576 -0.1312
 2590SOL    HW116979   5.049   3.012   2.884 -0.5209 -0.0945  1.2426
 2590SOL    HW216980   4.951   2.883   2.908  0.1938 -0.8161  0.3064
 2591SOL     OW16981   8.825   1.446   3.969  0.2467  0.0928  0.0663
 2591SOL    HW116982   8.830   1.410   3.876 -2.4303  2.0362 -0.9112
 2591SOL    HW216983   8.795   1.375   4.032  1.7042 -1.1352 -0.6129
 2592SOL     OW16984   3.432   6.379   2.351 -0.1736 -0.0234  0.1312
 2592SOL    HW116985   3.516   6.329   2.333 -0.2930 -0.2427  0.1761
 2592SOL    HW216986   3.396   6.416   2.266  0.1654  0.3857  0.1668
 2593SOL     OW16987   1.145   3.290   3.894  0.4270 -0.2373 -0.6613
 2593SOL    HW116988   1.087   3.302   3.813  0.7066  0.7817 -0.7184
 2593SOL    HW216989   1.135   3.370   3.953 -1.5570 -1.9916  1.4455
 2595SOL     OW16990   8.709   9.141   0.774 -0.4405  0.3559  0.0865
 2595SOL    HW116991   8.674   9.084   0.848  0.9710 -0.2010  0.3611
 2595SOL    HW216992   8.770   9.086   0.716  0.9166  1.5602  0.3255
 2596SOL     OW16993   4.935   2.518   1.979  0.2252  0.5029 -0.3656
 2596SOL    HW116994   4.900   2.438   1.931 -0.4452  1.2517 -1.1369
 2596SOL    HW216995   4.864   2.557   2.038  0.4705  0.6769 -0.1796
 2597SOL     OW16996   4.832   2.156   1.249 -0.3232  0.1144 -0.4999
 2597SOL    HW116997   4.879   2.220   1.188 -1.8755  0.5907 -1.2265
 2597SOL    HW216998   4.736   2.182   1.256 -1.4299 -3.2212 -2.2872
 2598SOL     OW16999   8.973   6.865   4.286  0.1631 -0.4576 -0.5097
 2598SOL    HW117000   9.055   6.808   4.293 -0.6586 -1.5389  0.3569
 2598SOL    HW217001   8.892   6.807   4.288 -0.5983  0.5379 -2.3860
 2600SOL     OW17002   2.780   8.610   3.932  0.1086  0.0233  0.2244
 2600SOL    HW117003   2.859   8.659   3.967  0.2059  0.0785 -0.0725
 2600SOL    HW217004   2.702   8.623   3.993 -0.0135  0.9796 -0.1333
 2601SOL     OW17005   8.446   6.144   1.303  0.2249  0.9340 -0.5110
 2601SOL    HW117006   8.433   6.095   1.389 -1.1591  0.8040 -0.7741
 2601SOL    HW217007   8.516   6.215   1.315  0.6054  0.3990  0.4963
 2602SOL     OW17008   7.341   1.780   3.731  0.0648  0.5047 -0.0406
 2602SOL    HW117009   7.374   1.847   3.665 -0.0484  1.3113  0.7078
 2602SOL    HW217010   7.316   1.696   3.684 -2.4307  1.9224 -1.3461
 2603SOL     OW17011   2.974   7.447   2.669  0.5274  0.0610 -0.0255
 2603SOL    HW117012   2.895   7.386   2.680  0.6605 -0.0806  0.1506
 2603SOL    HW217013   3.058   7.395   2.685  0.6638  0.1740 -0.3768
 2604SOL     OW17014   9.273   4.963   0.106 -0.6669  0.4465  0.2515
 2604SOL    HW117015   9.317   4.873   0.108  0.7143  1.0752 -0.6841
 2604SOL    HW217016   9.195   4.961   0.044  0.6797  0.4536 -1.4856
 2605SOL     OW17017   2.238   4.141   2.717 -0.0109 -0.8401  0.5780
 2605SOL    HW117018   2.303   4.216   2.725 -0.1121 -0.6120 -0.6247
 2605SOL    HW217019   2.170   4.164   2.647 -1.4602 -1.0183  1.9075
 2606SOL     OW17020   1.815   1.855   1.392  0.2450  0.0232  0.0812
 2606SOL    HW117021   1.902   1.855   1.441 -0.3436  1.4631  1.1542
 2606SOL    HW217022   1.802   1.944   1.347  0.3908 -0.9806 -2.0145
 2608SOL     OW17023   2.495   8.332   0.311 -0.5478 -0.3401  0.9126
 2608SOL    HW117024   2.564   8.263   0.289 -1.8644 -1.0548 -1.0263
 2608SOL    HW217025   2.532   8.423   0.292 -0.2069 -0.7282 -0.3356
 2610SOL     OW17026   2.107   9.779   2.920  0.0785  0.3598  0.0413
 2610SOL    HW117027   2.186   9.764   2.980  0.3456 -2.8105 -1.0306
 2610SOL    HW217028   2.119   9.727   2.836 -1.5016  2.7346 -1.6839
 2612SOL     OW17029   0.549   5.405   2.581  0.1826 -0.1906 -0.7204
 2612SOL    HW117030   0.469   5.442   2.532 -0.3683 -0.4531 -0.0288
 2612SOL    HW217031   0.624   5.471   2.578 -0.5682  0.7067 -0.0724
 2613SOL     OW17032   4.024   1.006   3.186  1.0533  0.3143 -0.3921
 2613SOL    HW117033   4.104   0.969   3.232  0.9769  0.7828  0.1196
 2613SOL    HW217034   3.942   0.961   3.221  0.9639  0.9265  0.1950
 2614SOL     OW17035   1.353   6.865   3.276  0.5137  0.3086  0.1773
 2614SOL    HW117036   1.261   6.875   3.238  0.8090  0.5386 -0.4820
 2614SOL    HW217037   1.347   6.832   3.370 -0.2672  0.9188  0.3487
 2615SOL     OW17038   2.036   4.172   1.585  0.1223 -0.2251  0.4704
 2615SOL    HW117039   2.042   4.225   1.670 -1.0112 -1.1801  1.1641
 2615SOL    HW217040   1.967   4.100   1.595  0.1081 -0.4750 -1.1973
 2616SOL     OW17041   2.387   5.523   0.614 -0.3158  0.2671  0.1794
 2616SOL    HW117042   2.341   5.511   0.702 -1.9995 -1.9295 -0.9514
 2616SOL    HW217043   2.463   5.459   0.607  0.3222  0.9960  0.3400
 2617SOL     OW17044   7.490   9.980   3.936  0.4986  0.0583  0.2347
 2617SOL    HW117045   7.589   9.967   3.948  0.2706 -0.5689  1.5088
 2617SOL    HW217046   7.442   9.939   4.013 -0.7936 -0.1038 -0.6533
 2618SOL     OW17047   2.757   7.913   1.299  0.0540  0.1184  0.2519
 2618SOL    HW117048   2.798   7.915   1.390  1.2285 -2.8763 -0.1702
 2618SOL    HW217049   2.785   7.995   1.249  1.2491  0.6757  1.7739
 2619SOL     OW17050   9.087   4.593   2.798  0.0262  0.0978  0.2698
 2619SOL    HW117051   9.024   4.671   2.802 -0.0301  0.1474 -1.1175
 2619SOL    HW217052   9.050   4.518   2.852  0.1441  1.0740  1.7276
 2621SOL     OW17053   1.627   0.752   4.078 -0.3271 -0.4729  0.4910
 2621SOL    HW117054   1.654   0.846   4.059  0.2428 -0.8648 -0.7024
 2621SOL    HW217055   1.549   0.751   4.140 -0.8254  0.8021 -0.1053
 2622SOL     OW17056   9.806   0.213   3.491 -0.3066  0.3846  0.3474
 2622SOL    HW117057   9.870   0.158   3.544 -1.5532  0.1715  1.6601
 2622SOL    HW217058   9.857   0.283   3.440  1.3293 -2.1024 -1.5757
 2625SOL     OW17059   1.246   3.553   1.704 -0.2028 -0.4365  0.0567
 2625SOL    HW117060   1.262   3.614   1.782 -3.5189 -1.6306  1.7602
 2625SOL    HW217061   1.181   3.595   1.641 -0.6399 -1.1701  0.0137
 2627SOL     OW17062   2.012   7.867   2.429  0.1992 -0.2163 -0.2497
 2627SOL    HW117063   2.031   7.788   2.370  2.1289  0.8556 -1.0958
 2627SOL    HW217064   2.053   7.852   2.518  0.8607 -0.0159 -0.5217
 2628SOL     OW17065   1.890   1.319   2.918  0.1087  0.2110 -0.4924
 2628SOL    HW117066   1.956   1.307   2.844 -0.5616 -0.0286 -1.0452
 2628SOL    HW217067   1.886   1.236   2.973 -0.4863 -0.1474 -1.0700
 2629SOL     OW17068   1.114   4.185   4.263  0.1232  0.0312  0.2871
 2629SOL    HW117069   1.030   4.186   4.317  0.7618 -1.1991  1.3432
 2629SOL    HW217070   1.152   4.092   4.263  0.0400 -0.0192 -2.4391
 2631SOL     OW17071   2.775   9.237   2.992  0.3073  0.1362 -0.3663
 2631SOL    HW117072   2.681   9.247   2.959  0.6924  0.2154 -1.4825
 2631SOL    HW217073   2.789   9.297   3.070 -1.2325 -1.5686  1.2889
 2632SOL     OW17074   4.802   3.911   1.570 -0.0329  0.2234 -0.0989
 2632SOL    HW117075   4.869   3.957   1.513 -2.3496  0.0704 -3.0447
 2632SOL    HW217076   4.787   3.964   1.654  1.9811  1.4609 -0.4953
 2633SOL     OW17077   2.407   3.785   1.428 -0.0610 -0.5173  0.6232
 2633SOL    HW117078   2.334   3.798   1.495 -1.1188  0.2031 -0.6394
 2633SOL    HW217079   2.402   3.693   1.389 -0.1686 -0.5335  0.6779
 2634SOL     OW17080   2.588   2.208   3.481 -0.4532 -0.2277  0.5975
 2634SOL    HW117081   2.582   2.238   3.576 -0.7552 -2.2677  1.2316
 2634SOL    HW217082   2.632   2.118   3.476  0.6574  0.3746 -1.3029
 2635SOL     OW17083   0.500   8.346   0.671  0.0818  0.5152 -0.4005
 2635SOL    HW117084   0.438   8.301   0.608 -0.2083 -1.1590  1.0174
 2635SOL    HW217085   0.454   8.423   0.715 -0.5136  0.1900 -0.4466
 2636SOL     OW17086   8.359   8.526   1.279 -0.5984  0.7380 -0.0051
 2636SOL    HW117087   8.345   8.582   1.361 -1.0718  3.3358 -1.8099
 2636SOL    HW217088   8.279   8.533   1.219  0.9128  1.1907 -2.0262
 2637SOL     OW17089   8.865   4.275   3.912 -0.2069  0.0208  0.0267
 2637SOL    HW117090   8.803   4.258   3.836  1.1347  0.3879 -1.1665
 2637SOL    HW217091   8.916   4.191   3.933 -0.5858 -0.0844  0.5316
 2639SOL     OW17092   1.654   5.126   1.629  0.2316 -0.4513 -0.4861
 2639SOL    HW117093   1.692   5.033   1.634 -1.2287 -1.0323 -0.0669
 2639SOL    HW217094   1.555   5.123   1.643  0.2340  1.2311  0.0393
 2640SOL     OW17095   2.430   9.913   0.625 -0.2394 -0.0565  0.0032
 2640SOL    HW117096   2.493   9.953   0.692 -3.2293  1.8678  1.7556
 2640SOL    HW217097   2.440   9.813   0.626  2.9218  0.2127  0.0385
 2641SOL     OW17098   6.792   9.690   3.883  0.0047  0.1771  0.0891
 2641SOL    HW117099   6.890   9.709   3.897  0.1136 -1.0281  0.9889
 2641SOL    HW217100   6.781   9.606   3.831 -0.5698  0.0734  0.3764
 2642SOL     OW17101   6.849   9.045   2.388 -0.3949  0.2311  0.4210
 2642SOL    HW117102   6.777   9.055   2.319  0.5225  1.0060 -0.4410
 2642SOL    HW217103   6.809   9.012   2.473 -2.0309  2.0710  0.4195
 2643SOL     OW17104   3.295   8.943   1.243  0.3612  0.2100  0.3778
 2643SOL    HW117105   3.247   8.892   1.172  0.7608  0.0074  0.2536
 2643SOL    HW217106   3.257   9.035   1.250  0.7393  0.4352 -0.5253
 2644SOL     OW17107   9.092   0.582   1.125  0.3808  0.1513 -0.3899
 2644SOL    HW117108   9.104   0.643   1.047  1.7372  0.7337  0.2755
 2644SOL    HW217109   9.072   0.635   1.207 -1.5384 -0.4890 -0.4210
 2645SOL     OW17110   4.148   5.472   1.438  0.3910  0.3094  0.1691
 2645SOL    HW117111   4.117   5.393   1.491  1.2606  0.3724  0.7813
 2645SOL    HW217112   4.193   5.538   1.499  2.1165  0.0142 -0.7674
 2646SOL     OW17113   8.322   6.171   1.826 -0.0079 -0.3831 -0.0410
 2646SOL    HW117114   8.279   6.107   1.890  1.2107 -0.0985  1.0906
 2646SOL    HW217115   8.267   6.178   1.743 -1.3050 -1.2065  0.7423
 2647SOL     OW17116   8.790   5.443   3.674 -0.0892 -0.0871  0.2335
 2647SOL    HW117117   8.716   5.437   3.608  1.4014  1.4433 -1.6002
 2647SOL    HW217118   8.811   5.351   3.708  0.1549 -1.1178 -2.5847
 2648SOL     OW17119   8.566   2.741   1.274 -0.5317  0.6572  0.4790
 2648SOL    HW117120   8.583   2.756   1.371 -0.0267 -0.8891  0.6461
 2648SOL    HW217121   8.515   2.818   1.237  1.3978  2.4611  1.4105
 2650SOL     OW17122   2.670   2.387   2.288 -0.2373 -0.0548 -0.2966
 2650SOL    HW117123   2.724   2.310   2.254 -1.2697 -1.5906  1.4192
 2650SOL    HW217124   2.673   2.388   2.388 -0.6683  1.8363 -0.2828
 2651SOL     OW17125   7.971   9.054   2.598 -0.0742 -0.0526 -0.0189
 2651SOL    HW117126   7.999   9.149   2.583 -0.3655  0.3622  1.8685
 2651SOL    HW217127   7.872   9.046   2.586 -0.3650  0.3606  1.8589
 2652SOL     OW17128   4.026   6.393   2.882 -0.2954 -0.0450  0.4234
 2652SOL    HW117129   4.050   6.298   2.863 -0.8741 -0.1588  0.2599
 2652SOL    HW217130   3.927   6.404   2.875 -0.3782  0.2289  2.0051
 2653SOL     OW17131   3.379   6.756   0.421 -0.2964 -0.0934 -0.2931
 2653SOL    HW117132   3.294   6.708   0.402 -0.3241  0.4603 -1.5962
 2653SOL    HW217133   3.375   6.848   0.382  0.6697  0.1502  0.1574
 2654SOL     OW17134   7.090   9.820   0.522 -0.6320 -0.0535  0.4070
 2654SOL    HW117135   7.189   9.804   0.520 -0.9812 -2.3369 -1.5582
 2654SOL    HW217136   7.046   9.742   0.566 -1.7783 -0.4411 -1.4140
 2655SOL     OW17137   2.094   6.568   2.230 -0.1332  0.1826 -0.2012
 2655SOL    HW117138   2.085   6.667   2.240  1.6657  0.2441  1.1330
 2655SOL    HW217139   2.061   6.523   2.313  0.7329 -0.2250 -0.0743
 2656SOL     OW17140   4.682   9.060   1.964  0.3209  0.4735  0.1854
 2656SOL    HW117141   4.660   9.141   1.911 -0.0075  0.0218 -0.3774
 2656SOL    HW217142   4.681   8.979   1.905  1.5658  0.1779  0.5403
 2657SOL     OW17143   2.571   2.499   4.330 -0.3690  0.5382  0.2555
 2657SOL    HW117144   2.596   2.565   4.401 -3.3576  2.7669 -0.6630
 2657SOL    HW217145   2.487   2.452   4.355 -0.8443  0.5421 -1.2480
 2658SOL     OW17146   4.052   9.846   1.855  0.2213  0.1166  0.5338
 2658SOL    HW117147   4.074   9.936   1.893  1.9149 -0.4957  1.0188
 2658SOL    HW217148   4.034   9.855   1.757  0.5219  0.9615  0.5475
 2659SOL     OW17149   1.761   9.817   1.408  0.1646  0.2874  0.6218
 2659SOL    HW117150   1.765   9.873   1.325  2.5737 -0.6567  0.0696
 2659SOL    HW217151   1.685   9.849   1.465 -0.8936  1.6101 -1.4496
 2660SOL     OW17152   6.654   0.864   2.870 -0.2137  1.1411  0.0797
 2660SOL    HW117153   6.561   0.829   2.877  0.4516 -0.7822 -0.3906
 2660SOL    HW217154   6.651   0.962   2.849 -2.1277  0.9793 -0.5303
 2661SOL     OW17155   0.240   2.020   2.420 -0.1166  0.1996  0.2619
 2661SOL    HW117156   0.314   2.023   2.488 -1.2158 -0.3240  1.5008
 2661SOL    HW217157   0.152   2.019   2.467 -0.8576 -2.3853 -1.1115
 2663SOL     OW17158   9.495   0.054   2.188 -0.3250 -0.0706 -0.5194
 2663SOL    HW117159   9.594   0.058   2.177 -0.3776 -1.2242 -1.5020
 2663SOL    HW217160   9.473   0.040   2.284  0.4756 -0.1440 -0.3421
 2664SOL     OW17161   9.411   5.063   3.154  0.3954 -0.2860  0.0608
 2664SOL    HW117162   9.450   5.155   3.162  0.1288 -0.1590 -0.1074
 2664SOL    HW217163   9.430   5.012   3.238 -1.6027  0.7534  1.1722
 2665SOL     OW17164   1.676   8.365   0.679 -0.2263 -0.3607 -0.6133
 2665SOL    HW117165   1.748   8.419   0.722 -1.2512  0.4426  0.1117
 2665SOL    HW217166   1.644   8.295   0.743 -1.3478  0.4589 -0.2654
 2666SOL     OW17167   9.858   1.199   1.528 -0.4615  0.0824 -0.2633
 2666SOL    HW117168   9.898   1.216   1.438 -0.4487 -1.2390 -0.5127
 2666SOL    HW217169   9.775   1.145   1.518  0.5191 -1.6442  0.6303
 2667SOL     OW17170   1.522   2.516   1.419 -0.1742 -0.2457 -0.2414
 2667SOL    HW117171   1.601   2.545   1.366  0.7805 -0.9395  0.7962
 2667SOL    HW217172   1.536   2.423   1.453 -0.4126  0.4695  1.8889
 2668SOL     OW17173   8.925   1.974   0.978 -0.1742  0.0948 -0.0922
 2668SOL    HW117174   8.833   1.948   0.946  0.1392 -0.5975 -0.4511
 2668SOL    HW217175   8.993   1.920   0.929  0.3890  0.0348  0.7523
 2669SOL     OW17176   7.706   9.560   1.349  0.6645  0.4070 -0.2697
 2669SOL    HW117177   7.774   9.633   1.342  1.3514 -0.2787 -0.8778
 2669SOL    HW217178   7.746   9.474   1.317 -0.3022 -0.1286 -0.0623
 2670SOL     OW17179   7.532   1.296   2.226  0.1557  0.0861  0.2677
 2670SOL    HW117180   7.602   1.364   2.249  0.8912 -0.5511 -0.0519
 2670SOL    HW217181   7.474   1.280   2.305  0.5463  0.4275  0.6267
 2672SOL     OW17182   5.711   9.125   4.181  0.2852  0.4540 -0.2257
 2672SOL    HW117183   5.674   9.068   4.254 -1.3349 -0.7607 -1.9747
 2672SOL    HW217184   5.686   9.221   4.198 -1.2841  0.0001  0.0785
 2673SOL     OW17185   9.905   7.090   2.912 -0.2843 -0.6281  0.3670
 2673SOL    HW117186   9.879   7.024   2.842  0.0752  0.0517 -0.4215
 2673SOL    HW217187   9.947   7.042   2.989 -0.4926 -1.3661  0.0255
 2674SOL     OW17188   4.523   2.538   1.158 -0.3406  0.6605  0.4309
 2674SOL    HW117189   4.450   2.589   1.205 -1.4812  0.3640 -0.9819
 2674SOL    HW217190   4.493   2.516   1.065  1.5758  0.5458 -0.1685
 2675SOL     OW17191   9.349   2.051   1.689 -0.4386  0.0849  0.2919
 2675SOL    HW117192   9.441   2.055   1.728 -0.6269  0.1136  0.7282
 2675SOL    HW217193   9.287   2.007   1.753 -0.4532 -1.1424 -0.5373
 2676SOL     OW17194   9.425   5.747   2.469 -0.3665 -0.5937 -0.6337
 2676SOL    HW117195   9.436   5.652   2.438  1.7053  0.3920 -3.1193
 2676SOL    HW217196   9.515   5.789   2.479 -1.3006  1.5478 -0.9409
 2677SOL     OW17197   0.078   5.840   0.309 -0.2815  0.2069 -0.5326
 2677SOL    HW117198   0.096   5.819   0.404  0.2630 -1.7684 -1.0580
 2677SOL    HW217199   0.045   5.934   0.301  1.7473  1.1247  1.3652
 2679SOL     OW17200   1.685   3.023   3.983  0.1804 -0.1502  1.0044
 2679SOL    HW117201   1.722   3.059   4.069 -1.5762  1.3637  1.1635
 2679SOL    HW217202   1.663   3.099   3.922  2.1808 -1.2499 -1.1359
 2680SOL     OW17203   1.594   0.866   2.321 -0.0454 -0.9686 -0.0205
 2680SOL    HW117204   1.622   0.812   2.242 -0.2816  1.0183 -1.5060
 2680SOL    HW217205   1.634   0.957   2.315 -0.8153 -0.4968  1.6898
 2681SOL     OW17206   0.427   2.129   1.443 -0.6791 -0.1479  0.2895
 2681SOL    HW117207   0.365   2.108   1.519 -2.8892 -0.3457 -1.5315
 2681SOL    HW217208   0.419   2.060   1.372  0.2647  0.8328 -0.8033
 2682SOL     OW17209   6.407   8.144   1.529 -0.0239  0.3151 -0.0915
 2682SOL    HW117210   6.481   8.099   1.480 -0.2612 -0.3036  0.1206
 2682SOL    HW217211   6.425   8.243   1.533 -0.4141  0.5031 -2.1661
 2683SOL     OW17212   7.485   0.389   1.339  0.3828  0.1431  0.1086
 2683SOL    HW117213   7.457   0.320   1.406 -0.1301  0.0251 -0.2266
 2683SOL    HW217214   7.404   0.437   1.304  0.6034 -0.1421 -0.8076
 2684SOL     OW17215   9.254   2.569   3.626  0.8934  0.2777  0.2774
 2684SOL    HW117216   9.290   2.496   3.569  0.7474  1.4143 -1.3141
 2684SOL    HW217217   9.267   2.546   3.723  0.0735 -2.2002 -0.1847
 2686SOL     OW17218   8.496   9.480   3.621 -0.3533  0.0543 -0.2486
 2686SOL    HW117219   8.523   9.536   3.543 -1.1775 -0.4427 -0.9049
 2686SOL    HW217220   8.542   9.391   3.616  2.2499  1.2244  1.6835
 2687SOL     OW17221   8.263   3.745   2.155  0.3567 -0.1753  0.0151
 2687SOL    HW117222   8.266   3.824   2.216 -0.8283 -0.7552  0.8181
 2687SOL    HW217223   8.307   3.667   2.199  1.1806 -0.0796 -0.6255
 2688SOL     OW17224   1.062   1.339   4.391 -0.0378 -0.2412 -0.2678
 2688SOL    HW117225   1.147   1.302   4.353 -0.0773 -1.3493  0.7026
 2688SOL    HW217226   1.003   1.369   4.317  0.8334 -0.2855 -0.9871
 2689SOL     OW17227   1.117   3.715   2.916 -0.2175 -0.0650 -0.4636
 2689SOL    HW117228   1.078   3.685   2.829  0.5956 -1.0546 -0.4931
 2689SOL    HW217229   1.063   3.679   2.992 -0.4811  0.1689 -0.5393
 2690SOL     OW17230   7.676   9.532   3.047  0.0916 -0.5542  0.0667
 2690SOL    HW117231   7.776   9.531   3.054  0.1459 -1.3168 -0.7467
 2690SOL    HW217232   7.637   9.566   3.133  1.0670  0.3453  0.1573
 2691SOL     OW17233   1.377   4.756   0.104 -0.4174 -0.7261 -0.4491
 2691SOL    HW117234   1.342   4.735   0.012  1.1588  0.0283 -1.2308
 2691SOL    HW217235   1.471   4.789   0.098 -0.2664 -0.7268  1.4567
 2692SOL     OW17236   4.213   8.939   3.207  0.2298 -0.3269  0.7279
 2692SOL    HW117237   4.225   8.985   3.295 -2.9411  0.9202  0.5834
 2692SOL    HW217238   4.120   8.903   3.201  0.8686 -1.6980 -1.5400
 2693SOL     OW17239   9.647   3.039   3.230  0.0854 -0.2361 -0.6579
 2693SOL    HW117240   9.716   3.095   3.276 -0.5075  0.0317 -0.0923
 2693SOL    HW217241   9.614   2.968   3.292  0.2048 -0.6699 -1.0892
 2694SOL     OW17242   1.722   4.881   2.642  0.9039  0.0738 -0.0642
 2694SOL    HW117243   1.707   4.782   2.648  1.4897  0.0806  1.6075
 2694SOL    HW217244   1.776   4.901   2.560  1.5809 -1.0835  0.0895
 2695SOL     OW17245   9.968   6.160   1.809  0.1253  0.6858 -0.5579
 2695SOL    HW117246  10.056   6.205   1.826 -0.1612  1.2757 -0.6089
 2695SOL    HW217247   9.946   6.166   1.711 -0.2841  1.1236 -0.4410
 2696SOL     OW17248   3.546   5.650   2.538  0.5938  0.5114 -0.0411
 2696SOL    HW117249   3.581   5.580   2.601  1.1324  1.3261  0.5733
 2696SOL    HW217250   3.454   5.624   2.508  0.5912 -0.2148  0.5661
 2697SOL     OW17251   9.146   2.018   2.120 -0.4305 -0.4295 -0.5406
 2697SOL    HW117252   9.088   2.061   2.189  0.9817 -0.5931  0.7831
 2697SOL    HW217253   9.168   1.925   2.148  1.0843 -0.1179 -0.6243
 2698SOL     OW17254   0.063   2.835   3.941  0.2154 -0.2873 -0.2536
 2698SOL    HW117255   0.025   2.812   4.030 -0.0337 -2.4517 -0.8976
 2698SOL    HW217256   0.018   2.917   3.906 -1.1016 -0.5806  0.7201
 2699SOL     OW17257   2.914   1.148   3.585 -0.4135  0.3393  0.4901
 2699SOL    HW117258   2.997   1.172   3.635  0.0967 -0.7814  0.1937
 2699SOL    HW217259   2.888   1.054   3.606 -1.0375  0.3526 -0.1942
 2701SOL     OW17260   3.634   9.118   1.465  0.0862  0.4393  0.2733
 2701SOL    HW117261   3.706   9.138   1.532  1.9469 -0.4696 -1.4075
 2701SOL    HW217262   3.587   9.203   1.441 -0.9054  0.7215  3.0189
 2702SOL     OW17263   2.549   7.690   0.473  0.0147 -0.0965  0.5302
 2702SOL    HW117264   2.548   7.626   0.397 -1.7259 -0.9690  1.2532
 2702SOL    HW217265   2.595   7.648   0.551 -0.9819 -0.4172  0.9524
 2703SOL     OW17266   1.312   0.906   2.044 -0.3577  0.0512 -0.4649
 2703SOL    HW117267   1.255   0.918   2.126  0.3097  1.1313 -0.1499
 2703SOL    HW217268   1.332   0.995   2.004 -2.1588 -0.5762 -2.8430
 2704SOL     OW17269   1.020   6.497   0.787  0.8238 -0.6495  0.5769
 2704SOL    HW117270   1.024   6.398   0.774  0.2349 -0.3599 -1.8902
 2704SOL    HW217271   1.113   6.532   0.802  1.1840 -1.3689  0.0371
 2705SOL     OW17272   2.139   2.220   1.389 -0.0497 -0.0333 -0.3802
 2705SOL    HW117273   2.151   2.143   1.451  0.7593  1.3387  1.2089
 2705SOL    HW217274   2.214   2.286   1.402 -0.3742  0.7131 -2.1588
 2707SOL     OW17275   7.717   1.314   4.017 -0.1247  0.3587 -0.4357
 2707SOL    HW117276   7.814   1.314   3.997  0.1735  1.1774  0.8912
 2707SOL    HW217277   7.701   1.359   4.105 -1.6036 -0.6764 -0.1434
 2708SOL     OW17278   8.972   0.544   3.093 -0.1464  0.1820 -0.2334
 2708SOL    HW117279   8.883   0.584   3.072  0.3385  0.3116 -2.1166
 2708SOL    HW217280   8.967   0.444   3.084  0.5954  0.3756 -3.1529
 2710SOL     OW17281   5.132   1.700   3.641  0.5780 -0.3483  0.3965
 2710SOL    HW117282   5.145   1.799   3.636 -0.9614 -0.2176 -1.4768
 2710SOL    HW217283   5.052   1.680   3.696 -0.2092 -0.4543 -0.7733
 2711SOL     OW17284   7.110   8.113   1.649 -0.4250 -0.3986 -0.0194
 2711SOL    HW117285   7.201   8.132   1.610  0.3801  0.3716  2.1206
 2711SOL    HW217286   7.047   8.087   1.577  2.0302 -3.0063 -1.3161
 2712SOL     OW17287   7.454   1.677   2.024  0.3429 -0.3033  0.2115
 2712SOL    HW117288   7.418   1.591   1.987 -0.7814 -0.1904  1.0236
 2712SOL    HW217289   7.543   1.696   1.983  1.7560 -3.1221  1.8553
 2713SOL     OW17290   0.088   4.944   4.418  0.0915  0.3650 -0.4930
 2713SOL    HW117291   0.168   4.990   4.380  1.3435 -0.4427  1.1298
 2713SOL    HW217292   0.109   4.847   4.434 -1.0467  0.2548  0.4115
 2716SOL     OW17293   8.255   6.287   2.388 -0.4642 -0.2185 -0.0586
 2716SOL    HW117294   8.179   6.349   2.372  0.0792  0.0811 -1.5366
 2716SOL    HW217295   8.291   6.301   2.480 -0.3058  1.7010 -0.4083
 2717SOL     OW17296   6.705   9.592   2.426 -0.2879  0.2783  0.1418
 2717SOL    HW117297   6.707   9.681   2.380  2.2400 -0.3284 -1.0215
 2717SOL    HW217298   6.742   9.522   2.364  0.7415 -1.0118  2.1837
 2718SOL     OW17299   3.230   8.308   2.125 -0.2696 -0.5999  0.4234
 2718SOL    HW117300   3.295   8.368   2.170  0.6515 -1.0710 -0.2491
 2718SOL    HW217301   3.137   8.345   2.134  0.2385  0.7089  0.3430
 2719SOL     OW17302   9.274   7.317   1.484  0.4225  0.2782 -0.0000
 2719SOL    HW117303   9.353   7.338   1.426 -0.4296  1.2460 -0.8178
 2719SOL    HW217304   9.268   7.384   1.558  0.4387  0.1276  0.1389
 2720SOL     OW17305   8.667   5.086   1.643 -0.2371 -0.1303  0.0195
 2720SOL    HW117306   8.721   5.093   1.727 -1.3079  1.7672  0.5776
 2720SOL    HW217307   8.720   5.037   1.573  1.5449  0.2589  1.0670
 2721SOL     OW17308   3.328   1.842   3.923 -0.2420 -0.3049  0.3148
 2721SOL    HW117309   3.372   1.781   3.857  0.5276 -0.4742  0.9730
 2721SOL    HW217310   3.289   1.788   3.997 -1.8706 -0.1783 -0.4397
 2722SOL     OW17311   2.893   1.570   2.023 -0.0356  0.1193 -0.4293
 2722SOL    HW117312   2.923   1.492   2.077  1.1002  0.8892  0.0492
 2722SOL    HW217313   2.943   1.573   1.937  0.6477  0.8948 -0.0117
 2724SOL     OW17314   3.688   4.704   1.245 -0.3455  0.2444  0.2474
 2724SOL    HW117315   3.711   4.608   1.228 -0.3793 -0.0110  1.6549
 2724SOL    HW217316   3.666   4.748   1.157  0.3122 -0.8512 -0.4835
 2725SOL     OW17317   4.266   3.083   0.237 -0.1346  0.3542 -0.4879
 2725SOL    HW117318   4.247   3.107   0.142 -0.2071 -1.0060 -0.8355
 2725SOL    HW217319   4.196   3.123   0.296 -0.7509  0.2396 -1.1328
 2727SOL     OW17320   3.099   6.576   3.538 -0.2408  0.3097 -0.6160
 2727SOL    HW117321   3.085   6.671   3.512 -3.3661  0.5155  1.6053
 2727SOL    HW217322   3.163   6.572   3.615  0.6575  0.4981 -1.3367
 2728SOL     OW17323   3.435   3.302   3.656  0.2891 -0.0962  0.0591
 2728SOL    HW117324   3.364   3.232   3.662  2.0524 -1.8951  0.5203
 2728SOL    HW217325   3.473   3.319   3.748  1.4712 -0.2234 -0.3998
 2729SOL     OW17326   7.366   8.134   1.520 -0.1739  0.5355  0.1398
 2729SOL    HW117327   7.461   8.107   1.503 -0.3707  0.6079 -1.0629
 2729SOL    HW217328   7.363   8.231   1.542  0.0011  0.5844 -0.0511
 2730SOL     OW17329   0.923   9.418   3.778  0.3233  0.8022 -0.5971
 2730SOL    HW117330   0.939   9.322   3.801 -0.8964  0.5023 -0.9432
 2730SOL    HW217331   0.842   9.425   3.720 -0.4685  2.1829  0.6525
 2731SOL     OW17332   9.057   5.742   2.848 -0.1634 -0.4924  0.3141
 2731SOL    HW117333   8.957   5.734   2.854 -0.0500 -1.7492  0.6599
 2731SOL    HW217334   9.093   5.666   2.794  0.5061  0.6537 -0.8771
 2732SOL     OW17335   8.181   1.012   0.983  0.2138  0.2331 -1.0283
 2732SOL    HW117336   8.084   1.008   0.957 -0.4203  0.0039  1.2374
 2732SOL    HW217337   8.217   1.104   0.967 -1.3942  1.3431  1.4664
 2733SOL     OW17338   1.540   9.924   3.261 -0.2246 -0.8366 -0.2154
 2733SOL    HW117339   1.513   9.888   3.172  0.1164  0.6487 -0.9378
 2733SOL    HW217340   1.488  10.007   3.281 -0.5281 -1.3338  1.1169
 2738SOL     OW17341   2.836   0.987   1.149  0.4234 -0.2125  0.1527
 2738SOL    HW117342   2.921   0.997   1.200  1.4538 -2.5577 -1.0148
 2738SOL    HW217343   2.764   0.953   1.210  1.3555 -1.9715  0.2837
 2739SOL     OW17344   0.989   3.921   0.566  0.0380 -0.0046  0.6296
 2739SOL    HW117345   1.001   3.977   0.483  1.8512 -0.0771  0.8151
 2739SOL    HW217346   0.927   3.845   0.547  1.0717 -0.4859 -0.9138
 2740SOL     OW17347   7.759   1.671   2.176 -0.2641  0.0822 -0.3016
 2740SOL    HW117348   7.842   1.701   2.223  1.5446 -3.4536 -1.0411
 2740SOL    HW217349   7.722   1.589   2.221 -2.1759  0.4106 -1.1967
 2741SOL     OW17350   9.225   9.578   0.848  0.4089 -0.1251  0.8011
 2741SOL    HW117351   9.220   9.585   0.748 -1.3559  3.1238  1.0365
 2741SOL    HW217352   9.156   9.638   0.889 -0.2388 -2.9103  3.9836
 2742SOL     OW17353   1.848   5.844   0.622  0.0309  0.3530  0.6062
 2742SOL    HW117354   1.755   5.876   0.639  0.3380  0.1719  2.7384
 2742SOL    HW217355   1.845   5.755   0.577 -0.8132  0.9560 -0.5565
 2743SOL     OW17356   1.413   3.299   0.426 -0.2182 -0.0422 -0.3451
 2743SOL    HW117357   1.319   3.266   0.426 -0.0506 -0.5293 -0.4478
 2743SOL    HW217358   1.441   3.322   0.333  0.4829 -2.0098 -0.6516
 2744SOL     OW17359   1.122   3.559   0.990 -0.4410  0.2759 -0.4832
 2744SOL    HW117360   1.189   3.527   0.923 -0.5673  0.6792 -0.8104
 2744SOL    HW217361   1.040   3.501   0.986  0.0994 -0.5512  0.3013
 2746SOL     OW17362   7.341   9.162   2.524  0.2224 -0.4152  0.3565
 2746SOL    HW117363   7.283   9.234   2.563  0.7799  0.1774  0.0975
 2746SOL    HW217364   7.389   9.197   2.443 -0.0887 -1.3064 -0.2267
 2747SOL     OW17365   0.097   8.914   3.121  0.0186  0.3219  0.0404
 2747SOL    HW117366   0.184   8.908   3.168  1.1358 -1.3344 -2.1419
 2747SOL    HW217367   0.059   8.822   3.107 -0.3953  0.7583 -1.9965
 2748SOL     OW17368   3.061   8.039   1.048 -0.1906 -0.3525  0.6164
 2748SOL    HW117369   2.979   7.994   1.012  0.5144 -0.9211 -0.2948
 2748SOL    HW217370   3.039   8.082   1.136 -1.5843 -0.0717  0.1385
 2749SOL     OW17371   7.971   8.761   2.053 -0.6142  0.0820  0.1960
 2749SOL    HW117372   8.069   8.763   2.075 -0.5902  0.8678  0.0528
 2749SOL    HW217373   7.942   8.667   2.037  0.3802 -0.0562 -0.8757
 2750SOL     OW17374   9.931   0.227   1.721  0.0536  0.3955  0.7370
 2750SOL    HW117375   9.900   0.315   1.757 -1.8068  0.3452 -0.6654
 2750SOL    HW217376   9.860   0.158   1.736  1.2104 -0.7110  1.1889
 2751SOL     OW17377   9.858   0.118   3.994  0.0022  0.6182  0.0868
 2751SOL    HW117378   9.825   0.156   4.081  2.1631  0.0801  1.1696
 2751SOL    HW217379   9.958   0.119   3.993  0.0060 -0.2229 -2.0361
 2752SOL     OW17380   2.704   0.391   0.830 -0.1000 -0.3281 -0.1188
 2752SOL    HW117381   2.706   0.334   0.748 -0.1905 -2.2335  1.1557
 2752SOL    HW217382   2.629   0.457   0.824  0.2421 -0.0632 -1.7871
 2753SOL     OW17383   9.874   6.746   0.696  0.2288  0.1329 -0.0982
 2753SOL    HW117384   9.941   6.673   0.682  0.3765  0.2979 -0.2616
 2753SOL    HW217385   9.912   6.832   0.662 -0.3548  0.0887 -0.8683
 2754SOL     OW17386   9.702   8.283   1.963 -0.3687  0.1966 -0.9661
 2754SOL    HW117387   9.651   8.216   2.016  0.4483  2.0590  2.3350
 2754SOL    HW217388   9.641   8.333   1.902 -1.2206 -2.4385 -2.3311
 2755SOL     OW17389   9.538   3.300   1.006 -0.1066 -0.8556  0.6269
 2755SOL    HW117390   9.478   3.307   0.927  1.5797  0.3863 -0.6009
 2755SOL    HW217391   9.534   3.385   1.058  0.4713 -0.8185  0.6141
 2756SOL     OW17392   9.891   1.323   2.612 -0.2214  0.0018  0.1215
 2756SOL    HW117393   9.857   1.383   2.539 -0.4653 -0.2937 -0.0103
 2756SOL    HW217394   9.816   1.301   2.674 -0.3118 -0.7717 -0.2519
 2757SOL     OW17395   5.488   0.767   3.442 -0.3721 -0.3660 -0.7679
 2757SOL    HW117396   5.431   0.702   3.492  0.1684  0.4272  0.9159
 2757SOL    HW217397   5.540   0.719   3.371 -0.2723 -1.6888  0.1941
 2759SOL     OW17398   9.565   3.451   1.726  0.5106  0.1180 -0.0253
 2759SOL    HW117399   9.660   3.420   1.730 -0.3503 -2.4273  3.0727
 2759SOL    HW217400   9.546   3.513   1.802 -0.1703  1.0799 -0.9660
 2760SOL     OW17401   9.461   4.386   1.097 -0.2300  0.0373  0.0200
 2760SOL    HW117402   9.509   4.316   1.150  0.3052 -1.1140 -1.9161
 2760SOL    HW217403   9.388   4.343   1.044 -0.7951  1.1737 -0.1399
 2761SOL     OW17404   4.854   9.402   2.827 -0.1668 -0.3406  0.0839
 2761SOL    HW117405   4.949   9.426   2.805  0.0779 -1.1552  0.2077
 2761SOL    HW217406   4.794   9.431   2.753  0.2421 -0.2296 -0.2075
 2762SOL     OW17407   6.101   7.800   1.733 -0.1765 -0.4714 -0.2060
 2762SOL    HW117408   6.149   7.872   1.683 -0.8973 -0.4471 -0.8821
 2762SOL    HW217409   6.038   7.842   1.799  1.0646 -0.5060  1.0183
 2763SOL     OW17410   1.274   8.549   3.984  0.7626  0.3018 -0.0238
 2763SOL    HW117411   1.204   8.489   4.025  2.0115 -1.3626 -0.2895
 2763SOL    HW217412   1.266   8.641   4.023  0.1315 -0.5533  1.9165
 2764SOL     OW17413   5.463   2.893   0.716  0.2285  0.5965 -0.6920
 2764SOL    HW117414   5.549   2.863   0.758  1.1235  1.2784 -1.9963
 2764SOL    HW217415   5.483   2.954   0.640 -1.4179  0.5585 -1.1722
 2765SOL     OW17416   0.966   0.517   1.966  0.2802  0.2775  0.4131
 2765SOL    HW117417   1.002   0.489   2.055 -0.8832  1.2826  1.2171
 2765SOL    HW217418   1.041   0.552   1.910  1.1272 -0.9456  0.7555
 2766SOL     OW17419   4.083   9.735   3.546 -0.3487  0.1946  0.4135
 2766SOL    HW117420   4.034   9.694   3.622 -1.4040 -0.9476 -0.8548
 2766SOL    HW217421   4.118   9.825   3.573  0.5636 -0.8200  2.6944
 2767SOL     OW17422   7.265   9.899   3.327 -0.2192 -0.2147 -0.0170
 2767SOL    HW117423   7.328   9.939   3.392  1.2515  0.3969 -1.7878
 2767SOL    HW217424   7.219   9.971   3.275  2.1328 -0.6954 -2.9210
 2769SOL     OW17425   3.657   0.505   3.799 -0.9668 -0.1232 -0.1526
 2769SOL    HW117426   3.714   0.499   3.881 -2.0968 -1.0915  0.5591
 2769SOL    HW217427   3.612   0.418   3.783 -1.9642  0.5313 -0.9365
 2770SOL     OW17428   0.851   1.931   2.541 -0.5529  0.1299 -0.0307
 2770SOL    HW117429   0.759   1.894   2.528 -0.4453  0.0751 -0.6356
 2770SOL    HW217430   0.915   1.856   2.558 -0.3019  0.0101 -1.4428
 2772SOL     OW17431   9.944   3.750   3.532  0.4013  0.2910  0.6670
 2772SOL    HW117432  10.001   3.822   3.573  0.0599  0.2695  1.1825
 2772SOL    HW217433   9.858   3.743   3.583  0.9267 -1.3017  1.3474
 2773SOL     OW17434   3.234   3.013   2.421  0.0068  0.4116  0.2960
 2773SOL    HW117435   3.207   3.108   2.442  1.0306  0.8328 -0.2915
 2773SOL    HW217436   3.271   2.970   2.503  1.8765  1.3309 -0.0470
 2774SOL     OW17437   4.601   7.901   2.345 -0.1130 -0.0703 -0.2970
 2774SOL    HW117438   4.519   7.864   2.389  0.4408  0.5738  1.2801
 2774SOL    HW217439   4.603   8.000   2.356  0.7744 -0.0613 -0.5223
 2776SOL     OW17440   6.407   1.186   3.239  0.2601 -0.3555  0.0026
 2776SOL    HW117441   6.401   1.147   3.331  0.3626 -0.4915 -0.0480
 2776SOL    HW217442   6.451   1.275   3.244  1.1837 -0.8006 -0.0353
 2777SOL     OW17443   4.389   7.278   2.857  0.5116  0.8806  0.0818
 2777SOL    HW117444   4.407   7.298   2.954 -0.2293 -1.5421  0.7458
 2777SOL    HW217445   4.462   7.219   2.821 -0.5792 -0.3728 -0.0959
 2778SOL     OW17446   0.473   4.763   1.120 -0.1697 -0.3255  0.0479
 2778SOL    HW117447   0.402   4.795   1.183 -1.7089 -1.9586 -0.7977
 2778SOL    HW217448   0.507   4.840   1.066  1.1388  1.0830  2.7951
 2779SOL     OW17449   3.567   8.719   3.556 -0.1590  0.0703  0.5504
 2779SOL    HW117450   3.529   8.724   3.463 -1.4639 -1.6020  0.9651
 2779SOL    HW217451   3.635   8.645   3.560 -0.6311 -0.3368  1.0910
 2780SOL     OW17452   2.528   8.690   0.493  0.2544  0.6849  0.3642
 2780SOL    HW117453   2.483   8.662   0.408 -0.8975  0.0913  1.1685
 2780SOL    HW217454   2.561   8.609   0.542 -0.5832  0.9052  1.3089
 2781SOL     OW17455   8.783   3.722   3.609  0.1607  0.0922  0.5049
 2781SOL    HW117456   8.855   3.656   3.585  2.6830  2.0523  2.4502
 2781SOL    HW217457   8.711   3.676   3.661 -0.6238 -2.1399 -2.4064
 2782SOL     OW17458   2.756   7.719   0.179  0.0644  0.4559  0.0780
 2782SOL    HW117459   2.789   7.692   0.269  1.9023 -1.1676 -1.0376
 2782SOL    HW217460   2.695   7.798   0.188 -1.7852 -1.1847  2.9830
 2783SOL     OW17461   2.969   6.823   1.200 -0.3045 -0.0140 -0.0383
 2783SOL    HW117462   2.968   6.758   1.277  0.4052 -0.7267 -0.6246
 2783SOL    HW217463   2.907   6.899   1.220 -2.3390 -1.6343  0.0065
 2785SOL     OW17464   1.379   3.836   3.455  0.1091 -0.0443 -0.3670
 2785SOL    HW117465   1.286   3.811   3.431  0.1452 -1.0479  0.5147
 2785SOL    HW217466   1.397   3.811   3.550  0.3687  2.7166  0.3615
 2788SOL     OW17467   3.209   6.160   2.935  0.0669 -0.3251 -0.3665
 2788SOL    HW117468   3.136   6.141   2.869 -0.9949 -0.4004  0.8263
 2788SOL    HW217469   3.170   6.198   3.018  1.3838 -0.4233  0.3065
 2789SOL     OW17470   2.366   5.620   2.008 -0.0837 -0.0479 -0.2304
 2789SOL    HW117471   2.398   5.599   1.916  1.6472 -1.4913  0.6697
 2789SOL    HW217472   2.316   5.541   2.044 -0.6296  0.4579  0.1278
 2790SOL     OW17473   2.509   9.189   2.898  0.2324  0.3752  0.1203
 2790SOL    HW117474   2.488   9.258   2.830 -2.0749 -0.6532 -0.2417
 2790SOL    HW217475   2.516   9.099   2.854 -0.6943 -0.2097  1.1467
 2791SOL     OW17476   1.480   9.274   0.042 -0.2100 -0.3746 -0.0942
 2791SOL    HW117477   1.432   9.289  -0.045  2.2430 -1.0067 -1.6173
 2791SOL    HW217478   1.527   9.358   0.069  0.6362 -0.7269 -0.4358
 2792SOL     OW17479   8.121   8.225   3.175  0.0795 -0.5251 -0.0377
 2792SOL    HW117480   8.060   8.218   3.253  2.0705 -2.0746  1.4281
 2792SOL    HW217481   8.123   8.319   3.142 -2.0151 -0.1901  0.7371
 2794SOL     OW17482   5.474   8.394   2.629  0.3708 -0.0649 -0.5265
 2794SOL    HW117483   5.394   8.433   2.584  1.2476 -0.1025 -2.1588
 2794SOL    HW217484   5.506   8.457   2.700 -2.1233 -0.8404  1.3720
 2796SOL     OW17485   3.892   0.125   3.172  0.2192  0.0245 -0.1497
 2796SOL    HW117486   3.832   0.048   3.150  2.4579 -2.0614  0.8479
 2796SOL    HW217487   3.950   0.145   3.093 -1.3233  1.6658 -0.9098
 2798SOL     OW17488   0.938   9.497   1.659  0.0527  0.0255 -0.3744
 2798SOL    HW117489   0.863   9.555   1.691  0.6690 -0.7350  2.6545
 2798SOL    HW217490   1.025   9.540   1.681  0.5048 -0.6151 -0.8794
 2800SOL     OW17491   2.459   7.574   1.669  0.0911  0.5793  0.1565
 2800SOL    HW117492   2.522   7.652   1.673 -0.3605  0.8873  1.4997
 2800SOL    HW217493   2.436   7.555   1.574  1.3358  1.1725 -0.2734
 2801SOL     OW17494   5.835   0.510   0.494  0.0748  0.6869 -0.8094
 2801SOL    HW117495   5.804   0.567   0.570  0.3857 -0.5030  0.2279
 2801SOL    HW217496   5.935   0.514   0.487  0.0867  0.3949 -0.8300
 2802SOL     OW17497   5.078   8.667   1.594 -0.1403 -0.2552  0.3143
 2802SOL    HW117498   4.979   8.677   1.585  0.0243  0.4293 -0.8354
 2802SOL    HW217499   5.116   8.748   1.638 -0.1045 -0.5881  0.9056
 2803SOL     OW17500   7.870   3.118   0.413  0.7498 -0.8740  0.1987
 2803SOL    HW117501   7.913   3.152   0.329 -1.6930 -0.7510 -1.0326
 2803SOL    HW217502   7.822   3.033   0.394  1.5235 -1.7113  1.8637
 2804SOL     OW17503   8.193   5.690   1.482  0.2810 -0.2093 -0.0094
 2804SOL    HW117504   8.168   5.666   1.576  0.3063  1.7978  0.5340
 2804SOL    HW217505   8.125   5.753   1.445  1.5612  0.9047 -0.4842
 2805SOL     OW17506   3.562   4.238   2.654 -0.3700 -0.0895  0.6556
 2805SOL    HW117507   3.518   4.182   2.584 -1.1044 -0.0136  1.0589
 2805SOL    HW217508   3.559   4.334   2.626  3.7561 -0.4867 -1.6276
 2806SOL     OW17509   8.986   2.045   1.495 -0.0196 -0.6584 -0.2999
 2806SOL    HW117510   8.949   2.011   1.409  1.8886  1.8316 -2.2035
 2806SOL    HW217511   9.066   1.991   1.521 -0.4575 -1.2633 -0.1943
 2807SOL     OW17512   3.067   4.956   3.068 -0.2508  0.5906  0.1575
 2807SOL    HW117513   3.078   4.900   3.149 -0.3510  1.0425  0.4870
 2807SOL    HW217514   3.126   4.923   2.995  1.6622  1.6644  1.1845
 2808SOL     OW17515   8.629   6.781   1.936 -1.0260 -1.1436 -0.5464
 2808SOL    HW117516   8.621   6.774   2.035  0.3276 -1.2673 -0.4344
 2808SOL    HW217517   8.668   6.696   1.899  1.7042  0.1625 -0.7858
 2811SOL     OW17518   6.564   0.461   1.384  0.2663 -0.0737  0.2533
 2811SOL    HW117519   6.484   0.425   1.335  0.1160 -1.0410  1.1850
 2811SOL    HW217520   6.589   0.549   1.346 -0.7902 -0.1075 -0.5556
 2812SOL     OW17521   4.064   0.797   0.836  0.0179 -0.2104 -0.2741
 2812SOL    HW117522   4.064   0.767   0.740  0.8957  1.0989 -0.6996
 2812SOL    HW217523   3.980   0.766   0.880 -0.7654 -0.1680 -1.6805
 2815SOL     OW17524   8.461   3.173   3.707  0.5145  0.1027  0.2523
 2815SOL    HW117525   8.390   3.237   3.737  0.5749  0.1041  0.3888
 2815SOL    HW217526   8.516   3.217   3.635  0.0478 -0.0889 -0.2235
 2816SOL     OW17527   2.968   7.797   3.249  0.0562  0.4924 -0.4052
 2816SOL    HW117528   2.954   7.782   3.347  1.6951  0.1800 -0.2189
 2816SOL    HW217529   2.921   7.726   3.197  2.2539 -1.4963  0.2743
 2818SOL     OW17530   1.944   6.292   1.474 -0.2108 -0.4800 -0.1225
 2818SOL    HW117531   2.005   6.213   1.475 -0.8478 -0.9773  1.8502
 2818SOL    HW217532   1.998   6.376   1.465  0.4844 -1.0950 -1.9276
 2819SOL     OW17533   5.727   9.413   2.382  0.2235 -0.0594  0.1781
 2819SOL    HW117534   5.675   9.488   2.423 -1.1820  0.2454 -2.1044
 2819SOL    HW217535   5.813   9.402   2.432 -0.2637  2.0149  1.5461
 2821SOL     OW17536   9.786   1.482   2.397 -0.9086 -0.1245 -0.5689
 2821SOL    HW117537   9.860   1.455   2.335 -1.1678  0.1880 -1.0091
 2821SOL    HW217538   9.698   1.463   2.355 -1.0891  0.7925 -0.6087
 2823SOL     OW17539   3.291   4.255   3.329  0.3996  0.0149  0.2578
 2823SOL    HW117540   3.333   4.245   3.419  0.1070 -0.2340  0.3684
 2823SOL    HW217541   3.343   4.320   3.274  1.0465 -0.4476  0.3180
 2824SOL     OW17542   1.849   4.887   0.767 -0.1677  0.0948 -0.2975
 2824SOL    HW117543   1.831   4.847   0.677  0.0698  0.7921 -0.6586
 2824SOL    HW217544   1.793   4.841   0.836 -1.3613  0.4643 -1.0090
 2825SOL     OW17545   4.534   1.994   0.058 -0.3817 -0.0542 -0.4046
 2825SOL    HW117546   4.519   1.967   0.153  0.1088  0.6779 -0.1156
 2825SOL    HW217547   4.458   2.051   0.026 -0.4554 -0.1475 -0.3968
 2826SOL     OW17548   5.020   4.071   0.063 -0.2996  0.5314 -0.6697
 2826SOL    HW117549   4.965   4.034   0.138 -0.1353  0.5571 -0.5355
 2826SOL    HW217550   5.053   4.162   0.088  0.7627  0.0450 -0.2705
 2827SOL     OW17551   2.290   0.965   1.207  0.0143  0.1249 -0.0414
 2827SOL    HW117552   2.198   0.997   1.230 -0.0698 -1.6423  2.2833
 2827SOL    HW217553   2.337   1.034   1.152 -2.1134  1.7361  0.0989
 2828SOL     OW17554   1.184   9.510   3.164  0.0858 -0.1340  0.4787
 2828SOL    HW117555   1.279   9.531   3.139  0.1302 -0.8491  0.0228
 2828SOL    HW217556   1.122   9.570   3.113  0.2275 -0.7876 -0.4775
 2829SOL     OW17557   7.936   2.883   0.585 -0.1386 -0.2304  0.3484
 2829SOL    HW117558   7.907   2.967   0.538  3.6080  1.3827  0.7226
 2829SOL    HW217559   7.919   2.804   0.526  2.4473  1.5106 -2.8920
 2831SOL     OW17560   2.312   2.071   1.632 -0.8034 -0.1316  0.2130
 2831SOL    HW117561   2.390   2.133   1.639 -1.9112  1.3374 -0.1972
 2831SOL    HW217562   2.236   2.107   1.686 -1.2809 -1.4242  0.4122
 2833SOL     OW17563   6.834   0.836   0.035  0.4740 -0.0133  0.0076
 2833SOL    HW117564   6.897   0.913   0.047 -0.2647  0.6315 -0.2342
 2833SOL    HW217565   6.868   0.776  -0.037  1.8586 -0.7569  1.2419
 2835SOL     OW17566   1.171   4.480   4.244  0.0327  0.1420  0.5512
 2835SOL    HW117567   1.154   4.382   4.240  3.3142 -0.4065 -0.7736
 2835SOL    HW217568   1.214   4.502   4.332  0.5352  0.1826  0.2958
 2836SOL     OW17569   9.499   7.623   0.644 -0.4619 -0.2026 -0.6118
 2836SOL    HW117570   9.592   7.617   0.681 -0.3021  0.3567 -0.9136
 2836SOL    HW217571   9.438   7.565   0.698  0.1189 -0.8169 -0.6013
 2838SOL     OW17572   4.828   7.554   2.225  0.4278 -0.0039  0.0802
 2838SOL    HW117573   4.892   7.579   2.152  0.1940  0.0969 -0.0883
 2838SOL    HW217574   4.766   7.630   2.243  0.0980 -0.2491 -0.0252
 2839SOL     OW17575   3.475   2.093   1.010  0.2314 -0.1690  0.0193
 2839SOL    HW117576   3.418   2.086   0.928 -0.3846 -0.3936  0.4642
 2839SOL    HW217577   3.515   2.003   1.030  0.3972 -0.1093 -0.0430
 2842SOL     OW17578   3.600   3.244   2.524  0.2756  0.3640 -0.3659
 2842SOL    HW117579   3.691   3.241   2.565 -0.0853  0.2337  0.4367
 2842SOL    HW217580   3.586   3.333   2.480  1.0608  0.1156 -1.1440
 2844SOL     OW17581   3.597   7.475   1.838 -0.0805 -0.0525  0.2941
 2844SOL    HW117582   3.612   7.423   1.922 -0.8370 -0.3941  0.2250
 2844SOL    HW217583   3.661   7.445   1.768  1.1520  0.8530  1.0142
 2846SOL     OW17584   8.508   5.048   0.543  0.1887  0.4952 -0.6323
 2846SOL    HW117585   8.485   5.138   0.581 -0.4481  0.0829 -0.0274
 2846SOL    HW217586   8.447   4.979   0.582  1.4720 -0.3927 -0.1729
 2847SOL     OW17587   6.346   0.366   2.304 -0.3483 -0.3487  0.2519
 2847SOL    HW117588   6.294   0.301   2.359 -1.1608 -0.6634 -0.8668
 2847SOL    HW217589   6.350   0.334   2.209 -1.2863  1.5146 -0.4460
 2848SOL     OW17590   9.316   6.466   0.670  0.5699 -0.3867 -0.5142
 2848SOL    HW117591   9.313   6.493   0.574 -0.1156  2.6434  0.3104
 2848SOL    HW217592   9.222   6.455   0.705  0.8150 -1.7459 -0.2501
 2849SOL     OW17593   3.109   3.524   0.632 -0.6482  0.1578  0.1483
 2849SOL    HW117594   3.026   3.527   0.576 -1.1736  1.8567  0.9845
 2849SOL    HW217595   3.085   3.501   0.726 -0.2268  1.0691  0.4851
 2850SOL     OW17596   2.977   8.245   3.093 -0.0957 -0.0611  0.6238
 2850SOL    HW117597   2.987   8.152   3.056 -1.2448 -0.0057  0.1530
 2850SOL    HW217598   3.020   8.250   3.183  2.5067 -0.2818 -0.5711
 2851SOL     OW17599   9.414   1.677   3.415  0.1398 -0.3727  0.2449
 2851SOL    HW117600   9.390   1.581   3.403 -1.1929 -0.0157 -0.0494
 2851SOL    HW217601   9.416   1.699   3.512 -0.6561 -0.4251  0.2726
 2853SOL     OW17602   4.980   0.124   0.748 -0.6618  0.1362  0.7067
 2853SOL    HW117603   5.059   0.101   0.805 -1.1793  0.1857  1.4498
 2853SOL    HW217604   4.918   0.183   0.800  0.0617  2.2118 -0.7438
 2856SOL     OW17605   9.429   5.541   2.886  0.6460 -0.2113 -0.8810
 2856SOL    HW117606   9.447   5.540   2.984  1.1326 -0.2981 -0.9674
 2856SOL    HW217607   9.420   5.635   2.855 -1.8117 -0.2430 -0.3548
 2857SOL     OW17608   3.850   2.439   1.710 -0.0527 -0.1664  0.4342
 2857SOL    HW117609   3.766   2.474   1.668 -0.6073 -0.4404  1.2979
 2857SOL    HW217610   3.867   2.346   1.678 -0.0633 -0.1012  0.2388
 2859SOL     OW17611   9.468   4.888   0.448  0.2207 -0.3983  0.3436
 2859SOL    HW117612   9.376   4.863   0.479  0.0638 -1.4526 -0.9845
 2859SOL    HW217613   9.482   4.986   0.465 -0.5568 -0.5379  1.9802
 2860SOL     OW17614   2.032   1.981   3.123 -1.0320 -0.3575  0.4685
 2860SOL    HW117615   2.072   1.998   3.213  0.7885  1.1360 -0.5980
 2860SOL    HW217616   2.067   1.894   3.087  2.4883  1.6177 -1.0708
 2861SOL     OW17617   3.668   2.886   2.572  0.1779 -0.2076 -0.4127
 2861SOL    HW117618   3.571   2.909   2.572 -0.4358 -2.6201 -0.0850
 2861SOL    HW217619   3.684   2.813   2.505  1.8517  0.5074 -0.8038
 2862SOL     OW17620   2.973   7.142   1.496 -0.4412  0.5865 -0.4804
 2862SOL    HW117621   2.923   7.208   1.552 -0.1888  1.4455 -1.2588
 2862SOL    HW217622   2.929   7.132   1.408 -0.5980 -0.4561 -0.2861
 2863SOL     OW17623   2.414   9.577   2.472 -0.3189  0.5289 -0.5868
 2863SOL    HW117624   2.457   9.645   2.531 -0.7928  0.3677 -0.0454
 2863SOL    HW217625   2.322   9.557   2.506  0.1548 -1.0723 -0.1858
 2866SOL     OW17626   1.158   1.827   0.982  0.1434  0.5078 -0.6265
 2866SOL    HW117627   1.235   1.870   0.935  0.7371 -1.2098 -1.2896
 2866SOL    HW217628   1.191   1.751   1.037 -0.8242  1.1456  0.8670
 2867SOL     OW17629   1.491   6.470   0.665  0.4062 -0.5266 -0.7844
 2867SOL    HW117630   1.497   6.371   0.661  0.0459 -0.4971 -3.7070
 2867SOL    HW217631   1.570   6.510   0.617 -0.1613  0.5480 -0.8612
 2868SOL     OW17632   2.547   1.236   0.053 -0.1743  0.4950 -0.1228
 2868SOL    HW117633   2.481   1.199   0.118 -0.0361  1.1920  0.4270
 2868SOL    HW217634   2.568   1.168  -0.017  1.4489 -1.1142  1.8719
 2869SOL     OW17635   8.323   8.865   2.736  0.5969  0.2198  0.1288
 2869SOL    HW117636   8.411   8.911   2.725 -0.3085  2.0879  0.4607
 2869SOL    HW217637   8.268   8.879   2.653  0.7610 -1.2900 -0.2460
 2870SOL     OW17638   5.230   1.580   2.970 -0.0316 -0.0645  0.1993
 2870SOL    HW117639   5.184   1.493   2.952 -1.4141  1.0304 -1.6726
 2870SOL    HW217640   5.200   1.648   2.904  1.8800  1.5596  0.9625
 2871SOL     OW17641   8.115   5.265   2.936  0.4235  0.5234  0.1411
 2871SOL    HW117642   8.153   5.354   2.961  0.6070  0.9552 -1.6073
 2871SOL    HW217643   8.041   5.277   2.870 -0.4893 -0.5463  0.9415
 2872SOL     OW17644   6.749   9.633   1.539  0.3661 -0.1879  0.5143
 2872SOL    HW117645   6.785   9.620   1.447  1.7941 -2.4565  1.3397
 2872SOL    HW217646   6.777   9.556   1.597 -1.8905  0.3635  2.4212
 2873SOL     OW17647   1.767   2.308   1.387  0.9274  0.2280  0.3504
 2873SOL    HW117648   1.839   2.339   1.325  3.5753 -3.8378  1.1801
 2873SOL    HW217649   1.791   2.334   1.480  1.0849 -0.6591  0.5621
 2874SOL     OW17650   3.760   7.524   0.699  0.3147 -0.2192 -0.4937
 2874SOL    HW117651   3.692   7.597   0.682 -0.0769 -0.3436  0.5535
 2874SOL    HW217652   3.851   7.559   0.678  0.1346  0.5980  0.0813
 2875SOL     OW17653   3.916   8.887   2.542 -0.1849 -0.6796  0.9018
 2875SOL    HW117654   3.967   8.879   2.628  0.1622 -0.6477  0.6948
 2875SOL    HW217655   3.947   8.968   2.492 -0.6467 -0.4875  0.9159
 2877SOL     OW17656   8.524   2.110   0.687  0.2394 -0.3146  0.3589
 2877SOL    HW117657   8.500   2.026   0.737  1.9372 -0.7195  0.4981
 2877SOL    HW217658   8.469   2.116   0.604  0.4274 -1.8012  0.1149
 2879SOL     OW17659   5.300   9.349   2.050  0.1171 -0.0188 -0.4684
 2879SOL    HW117660   5.326   9.325   2.144  3.3320 -0.5236 -1.4517
 2879SOL    HW217661   5.283   9.266   1.998 -2.1410  0.2731 -0.2512
 2880SOL     OW17662   4.024   1.504   3.852 -0.2047  0.3211  0.0485
 2880SOL    HW117663   4.103   1.454   3.887 -1.0117 -1.8478 -1.1753
 2880SOL    HW217664   3.943   1.446   3.856 -1.8521  2.6161  1.5918
 2881SOL     OW17665   3.219   8.272   0.965 -0.2179  0.4784  0.2661
 2881SOL    HW117666   3.278   8.353   0.962  0.2787  0.1066 -0.0010
 2881SOL    HW217667   3.275   8.190   0.976 -0.6005  0.0009 -1.3282
 2883SOL     OW17668   0.782   3.204   2.468  0.1824  0.2764 -0.2573
 2883SOL    HW117669   0.786   3.169   2.562 -0.8466  1.2468  0.1633
 2883SOL    HW217670   0.733   3.139   2.410 -0.2413  0.2425  0.1407
 2884SOL     OW17671   8.965   5.955   2.585 -0.1177 -0.0714 -0.4226
 2884SOL    HW117672   8.867   5.977   2.581  0.2177  0.9718 -4.4110
 2884SOL    HW217673   8.977   5.857   2.570 -0.6040 -0.5753  2.1085
 2887SOL     OW17674   9.967   8.054   1.416  0.1110  0.0169 -0.6388
 2887SOL    HW117675   9.998   8.146   1.438 -0.6476  0.4170 -1.2125
 2887SOL    HW217676  10.016   7.988   1.472  0.0491  0.8374  0.4024
 2888SOL     OW17677   8.699   1.151   2.589  0.0303  0.4036 -0.9827
 2888SOL    HW117678   8.777   1.095   2.561 -0.2691  1.0656 -3.2411
 2888SOL    HW217679   8.699   1.161   2.689  2.1085 -0.6209 -0.8554
 2890SOL     OW17680   8.288   7.300   3.256  0.3451 -0.4228 -0.3452
 2890SOL    HW117681   8.316   7.212   3.295 -1.2761 -0.2382  1.2994
 2890SOL    HW217682   8.220   7.285   3.184 -0.2321 -0.5016  0.2129
 2891SOL     OW17683   1.727   8.803   2.577  0.7194 -0.0877  0.1500
 2891SOL    HW117684   1.814   8.816   2.625 -0.8912 -0.5789  3.2927
 2891SOL    HW217685   1.658   8.771   2.641 -1.3383 -1.5481 -2.6951
 2892SOL     OW17686   2.156   0.882   4.198 -0.2344  0.2591 -0.2232
 2892SOL    HW117687   2.113   0.946   4.261 -0.3246 -0.2464  0.2300
 2892SOL    HW217688   2.222   0.931   4.141  0.1253  0.6503  0.5203
 2893SOL     OW17689   3.045   2.265   0.494 -0.2153 -0.8823  0.2005
 2893SOL    HW117690   3.023   2.350   0.542 -0.7997 -0.0450 -1.5009
 2893SOL    HW217691   3.143   2.261   0.476 -0.4322  0.4531 -1.5054
 2894SOL     OW17692   3.646   5.796   1.423 -0.0985  0.8161 -0.0798
 2894SOL    HW117693   3.667   5.894   1.427 -0.7218  0.9416  0.0910
 2894SOL    HW217694   3.591   5.777   1.342  0.5040  0.5140 -0.4213
 2895SOL     OW17695   8.540   3.525   1.548 -0.4607  0.2675 -0.6048
 2895SOL    HW117696   8.607   3.586   1.506 -0.6459  1.4166  0.7606
 2895SOL    HW217697   8.449   3.548   1.515 -0.1734 -1.6523 -2.8905
 2898SOL     OW17698   2.068   4.389   3.228 -0.0689 -0.0050  0.2176
 2898SOL    HW117699   1.975   4.351   3.231  0.0134 -0.3066 -0.6786
 2898SOL    HW217700   2.080   4.457   3.300 -0.0639 -2.0688  2.2149
 2899SOL     OW17701   8.084   1.992   2.662  0.1765 -0.5111 -0.3825
 2899SOL    HW117702   8.013   1.990   2.591  1.6815 -0.4441 -1.9066
 2899SOL    HW217703   8.045   1.960   2.748 -2.0442  0.7279 -0.8864
 2900SOL     OW17704   9.083   8.644   2.090 -0.2156  0.1404 -0.2329
 2900SOL    HW117705   9.012   8.698   2.136  0.0293 -0.0017  0.3158
 2900SOL    HW217706   9.151   8.706   2.051 -0.2878  0.2541 -0.1808
 2901SOL     OW17707   1.698   7.275   3.896 -0.1094 -0.6523  0.2683
 2901SOL    HW117708   1.767   7.207   3.873 -1.8233 -2.3804  0.0894
 2901SOL    HW217709   1.698   7.290   3.995  1.0515 -0.0391  0.1853
 2902SOL     OW17710   2.715   6.191   0.484 -0.1695 -0.2013  0.8265
 2902SOL    HW117711   2.663   6.108   0.468  2.6044 -2.0207  0.8781
 2902SOL    HW217712   2.733   6.237   0.397 -2.2744  0.7473  0.8627
 2904SOL     OW17713   0.063   8.538   1.723  0.1216  0.5163 -0.0586
 2904SOL    HW117714   0.084   8.463   1.659 -1.7877  0.1881 -0.3407
 2904SOL    HW217715   0.147   8.583   1.750  1.1131 -0.3715 -1.5723
 2906SOL     OW17716   4.679   0.698   1.244  0.1093 -0.0557  0.1153
 2906SOL    HW117717   4.757   0.678   1.303  0.4237  0.9645  0.0508
 2906SOL    HW217718   4.597   0.713   1.300  0.0451 -0.7417  0.2027
 2907SOL     OW17719   6.833   9.418   1.684 -0.8015 -0.0282  0.0348
 2907SOL    HW117720   6.758   9.393   1.745 -1.0285  3.4627  1.2884
 2907SOL    HW217721   6.920   9.411   1.733 -0.8860  1.7367  0.4595
 2908SOL     OW17722   1.782   2.490   2.825  0.3379  0.2121 -0.1362
 2908SOL    HW117723   1.865   2.532   2.862 -0.4192  1.3545  0.3001
 2908SOL    HW217724   1.783   2.496   2.725  0.9688 -0.1279 -0.1491
 2909SOL     OW17725   2.907   7.117   2.984  0.1582  0.0978  0.6860
 2909SOL    HW117726   2.936   7.032   3.028  1.5092  0.6350  0.8886
 2909SOL    HW217727   2.950   7.124   2.894  0.0264  0.5353  0.6545
 2910SOL     OW17728   7.574   1.568   3.263 -0.0861  0.4476 -0.7594
 2910SOL    HW117729   7.608   1.636   3.197  1.0418 -0.9671 -1.6761
 2910SOL    HW217730   7.506   1.510   3.218 -1.4694  1.3127  0.1857
 2912SOL     OW17731   5.409   0.860   1.824  0.0970 -0.6928  0.6176
 2912SOL    HW117732   5.504   0.891   1.826  0.1471 -0.9035  1.5576
 2912SOL    HW217733   5.391   0.799   1.901 -0.5006 -1.5445 -0.1746
 2914SOL     OW17734   2.606   8.609   4.372 -0.1241 -1.0523  0.0992
 2914SOL    HW117735   2.583   8.515   4.398  1.0621 -1.3662  0.0479
 2914SOL    HW217736   2.537   8.671   4.409 -2.2817 -2.1579 -1.9474
 2916SOL     OW17737   4.007   8.841   2.807  0.8901 -0.9005  0.2081
 2916SOL    HW117738   3.959   8.906   2.865 -0.2131  0.5679 -2.2850
 2916SOL    HW217739   4.106   8.856   2.815  0.6673  0.6071  0.1688
 2917SOL     OW17740   8.436   8.528   3.893  0.7167 -0.4308 -0.1601
 2917SOL    HW117741   8.419   8.448   3.952 -0.0857  0.1247  0.3744
 2917SOL    HW217742   8.424   8.501   3.798  0.3674 -0.9440  0.0207
 2918SOL     OW17743   2.752   1.621   3.646  0.2928  0.6220 -0.4302
 2918SOL    HW117744   2.820   1.547   3.645  1.2888  1.5487 -1.4938
 2918SOL    HW217745   2.720   1.638   3.553 -1.2094  0.3936  0.0217
 2919SOL     OW17746   1.453   9.567   0.076 -0.0377  0.6905 -0.0649
 2919SOL    HW117747   1.518   9.593   0.004 -0.9790  0.9809 -0.8104
 2919SOL    HW217748   1.382   9.637   0.083 -0.6748  0.0071  0.2566
 2920SOL     OW17749   9.556   0.056   4.266  0.1713 -0.0903 -0.2790
 2920SOL    HW117750   9.502   0.003   4.200  1.0716 -0.0784 -1.0300
 2920SOL    HW217751   9.562   0.151   4.235  1.6443 -0.3532 -0.8436
 2922SOL     OW17752   4.178   3.075   2.672 -0.8941 -0.4073 -0.2104
 2922SOL    HW117753   4.196   3.165   2.632 -0.9294 -0.8117 -1.1499
 2922SOL    HW217754   4.265   3.029   2.692 -0.8460  0.4282  1.6781
 2924SOL     OW17755   7.350   0.913   3.537 -0.2943 -0.7695  0.0848
 2924SOL    HW117756   7.352   1.012   3.548 -0.8836 -0.8922  1.4638
 2924SOL    HW217757   7.441   0.875   3.554 -0.2434 -0.5321  0.3471
 2925SOL     OW17758   6.866   9.744   4.240 -0.0140  0.2181 -0.3058
 2925SOL    HW117759   6.838   9.791   4.156 -0.2865  1.5556  0.5060
 2925SOL    HW217760   6.910   9.810   4.301  0.7745 -0.8862  0.3370
 2926SOL     OW17761   4.306   3.702   3.669 -0.5592  0.0111  0.4313
 2926SOL    HW117762   4.254   3.619   3.650 -1.3327  0.6648 -0.3414
 2926SOL    HW217763   4.256   3.758   3.736 -0.7239  0.5098 -0.1006
 2927SOL     OW17764   0.101   3.649   0.936 -0.6494 -0.2743  0.4860
 2927SOL    HW117765   0.170   3.626   1.005 -0.8381 -1.0911  0.4092
 2927SOL    HW217766   0.146   3.686   0.855 -0.3932  0.2923  0.8763
 2928SOL     OW17767   2.868   6.799   2.669 -0.0379  0.0009  0.3181
 2928SOL    HW117768   2.852   6.873   2.604  0.7266 -0.8716 -0.8790
 2928SOL    HW217769   2.788   6.790   2.729  0.3828  2.6216  1.3447
 2929SOL     OW17770   0.594   3.623   2.731  0.2384  0.6651  0.3438
 2929SOL    HW117771   0.515   3.629   2.669  1.3903  2.1350 -1.0198
 2929SOL    HW217772   0.599   3.705   2.787  0.5153  0.3547  0.7752
 2930SOL     OW17773   9.175   3.848   2.160  0.2335  0.2614 -0.1069
 2930SOL    HW117774   9.154   3.804   2.073 -1.9890 -0.9256  0.9809
 2930SOL    HW217775   9.116   3.810   2.231  2.4534  0.7562  2.0550
 2932SOL     OW17776   0.565   0.056   0.822 -0.6839 -0.3496 -0.4166
 2932SOL    HW117777   0.505   0.110   0.881 -1.0250  0.5354 -1.5586
 2932SOL    HW217778   0.659   0.089   0.830 -0.7238 -0.2576 -0.3306
 2933SOL     OW17779   6.686   0.673   2.685  0.1169  0.2365 -0.0488
 2933SOL    HW117780   6.624   0.692   2.608 -0.9906 -0.8386  0.5567
 2933SOL    HW217781   6.686   0.751   2.747 -0.2389  0.4564 -0.3187
 2934SOL     OW17782   0.825   2.019   2.116  0.3520  0.2067 -0.2269
 2934SOL    HW117783   0.896   2.015   2.046  0.4586 -2.7617 -0.0266
 2934SOL    HW217784   0.746   2.070   2.081  1.1523  0.4079 -1.7874
 2935SOL     OW17785   3.237   0.561   1.666  0.1119  0.2088 -0.7537
 2935SOL    HW117786   3.257   0.473   1.623 -0.6489 -0.7538  0.8111
 2935SOL    HW217787   3.151   0.597   1.630  0.3127  0.1958 -1.2417
 2936SOL     OW17788   1.486   6.845   0.827 -0.0002 -0.1239 -0.5284
 2936SOL    HW117789   1.536   6.828   0.912 -1.0330 -0.4249  0.0166
 2936SOL    HW217790   1.550   6.841   0.750  0.6264 -1.5668  0.0569
 2937SOL     OW17791   1.355   9.523   1.690 -0.1076  0.0650  0.1269
 2937SOL    HW117792   1.312   9.436   1.668 -0.7529  0.2377  0.6687
 2937SOL    HW217793   1.397   9.562   1.608 -1.9628  0.4353 -0.6761
 2938SOL     OW17794   9.081   5.587   0.285  0.3635 -0.3042 -0.5589
 2938SOL    HW117795   9.067   5.524   0.361  0.3980  0.6154  0.2062
 2938SOL    HW217796   8.993   5.626   0.258  0.5495  0.4513 -0.0655
 2939SOL     OW17797   7.886   7.489   3.252  0.1137  0.1666 -0.6235
 2939SOL    HW117798   7.900   7.390   3.249  2.9413  0.5219 -0.7059
 2939SOL    HW217799   7.935   7.526   3.332 -0.3299  1.5724 -1.0033
 2940SOL     OW17800   9.560   6.423   0.816  0.2724 -0.2372  0.4455
 2940SOL    HW117801   9.625   6.378   0.755  1.0657  0.0773  1.0478
 2940SOL    HW217802   9.471   6.430   0.771  0.7374 -0.3845 -0.5070
 2941SOL     OW17803   1.311   3.761   3.790 -0.3019 -0.5818 -0.1127
 2941SOL    HW117804   1.280   3.687   3.731 -0.7297 -0.7272  0.2932
 2941SOL    HW217805   1.240   3.783   3.857 -0.0950  0.0540 -0.0986
 2943SOL     OW17806   7.576   7.726   3.652 -0.0311 -0.1413 -0.4573
 2943SOL    HW117807   7.477   7.742   3.653  0.0174  0.1435 -0.2140
 2943SOL    HW217808   7.594   7.630   3.633 -0.3849 -0.4831  0.9319
 2944SOL     OW17809   8.938   0.642   4.342  0.2330 -0.2155  0.2949
 2944SOL    HW117810   8.894   0.676   4.424 -0.1278  0.7612 -0.2976
 2944SOL    HW217811   8.870   0.629   4.270  0.5837 -0.8144  0.0619
 2945SOL     OW17812   2.643   6.917   1.233  0.4989 -0.0473 -0.0572
 2945SOL    HW117813   2.569   6.867   1.278 -1.5719  1.4669 -1.6684
 2945SOL    HW217814   2.645   6.894   1.136  0.6619  1.5954 -0.4638
 2946SOL     OW17815   1.770   3.298   1.659 -0.7698  0.2593  0.1850
 2946SOL    HW117816   1.756   3.270   1.754 -1.6083  0.9367  0.2646
 2946SOL    HW217817   1.777   3.397   1.654 -1.4748  0.2786 -0.5513
 2948SOL     OW17818   1.257   5.846   3.146  0.1497  0.3742  0.0930
 2948SOL    HW117819   1.276   5.869   3.050 -0.6030 -0.4169 -0.2517
 2948SOL    HW217820   1.272   5.748   3.160  0.3391  0.5059  0.8103
 2949SOL     OW17821   4.980   0.827   4.032  0.2970  0.3967  0.8153
 2949SOL    HW117822   4.967   0.730   4.009  0.2159  0.5503  0.2217
 2949SOL    HW217823   5.077   0.844   4.051  0.6109  0.5829 -0.8692
 2950SOL     OW17824   3.360   1.512   0.648  0.1641  0.7415 -0.4845
 2950SOL    HW117825   3.384   1.436   0.710  0.5627  1.3366  0.0953
 2950SOL    HW217826   3.442   1.543   0.601 -0.5416 -1.3862 -3.2467
 2951SOL     OW17827   2.135   9.518   3.142 -0.2864  0.1771  0.3926
 2951SOL    HW117828   2.153   9.464   3.224 -1.7548  1.3996  1.5560
 2951SOL    HW217829   2.209   9.584   3.128 -0.9072  1.1897  1.7847
 2952SOL     OW17830   2.542   2.311   2.946  0.4677  0.2714 -0.1397
 2952SOL    HW117831   2.582   2.368   3.017  1.4562 -2.6504  1.7367
 2952SOL    HW217832   2.487   2.238   2.988 -0.3238 -0.4978 -2.4157
 2953SOL     OW17833   5.441   8.717   4.335 -0.3375  0.6028 -0.3041
 2953SOL    HW117834   5.536   8.702   4.308 -0.3188 -0.3733  0.2887
 2953SOL    HW217835   5.382   8.713   4.254 -0.0516 -0.3149 -0.4674
 2954SOL     OW17836   0.240   7.536   3.759 -0.2338 -0.6031  0.2428
 2954SOL    HW117837   0.222   7.440   3.779  0.1034 -0.9983 -1.2703
 2954SOL    HW217838   0.257   7.585   3.844 -1.8529 -1.5720  1.1591
 2955SOL     OW17839   3.923   2.427   2.582 -0.2732 -0.8177  0.0742
 2955SOL    HW117840   3.986   2.376   2.640  1.9087  1.2066 -0.4200
 2955SOL    HW217841   3.887   2.367   2.511  0.6640 -2.1397  0.6894
 2956SOL     OW17842   1.501   1.711   0.362 -0.3488 -0.2043  0.1893
 2956SOL    HW117843   1.577   1.703   0.427 -0.4145  2.1087  0.5843
 2956SOL    HW217844   1.527   1.668   0.276  0.4793 -1.5833  1.1001
 2957SOL     OW17845   0.250   4.502   4.296  0.0271  0.1187  0.0637
 2957SOL    HW117846   0.235   4.407   4.269  1.0836 -0.2465  0.7528
 2957SOL    HW217847   0.343   4.513   4.331 -0.8491  0.8756  2.2450
 2959SOL     OW17848   2.851   7.019   0.095  0.5907 -0.0112 -0.6621
 2959SOL    HW117849   2.807   7.032   0.006  1.0474 -1.4969 -1.1253
 2959SOL    HW217850   2.843   6.923   0.121  3.1218 -0.2180 -0.5141
 2960SOL     OW17851   3.485   2.473   2.061  0.0052 -0.6934  0.0578
 2960SOL    HW117852   3.569   2.438   2.020 -0.3693 -1.3838 -0.1408
 2960SOL    HW217853   3.506   2.544   2.128  0.6595  0.1797 -1.0612
 2962SOL     OW17854   3.560   3.516   0.323  0.0966 -0.4815 -0.3683
 2962SOL    HW117855   3.471   3.507   0.367  0.9033 -2.4218  0.8751
 2962SOL    HW217856   3.547   3.558   0.232 -2.0899 -0.9575 -0.3116
 2963SOL     OW17857   0.331   9.144   4.117 -0.2774 -0.2148  0.0637
 2963SOL    HW117858   0.378   9.061   4.147  0.6108 -0.0030 -0.7393
 2963SOL    HW217859   0.358   9.221   4.175  1.3650  0.1739 -1.1865
 2965SOL     OW17860   8.260   3.552   1.494  0.1353 -0.3198  0.2011
 2965SOL    HW117861   8.201   3.627   1.464 -1.4930 -1.4027  0.6019
 2965SOL    HW217862   8.223   3.465   1.459 -0.1993 -1.3111  2.9006
 2967SOL     OW17863   0.365   2.271   0.069  0.1592  0.3193 -0.2969
 2967SOL    HW117864   0.353   2.262   0.168  1.2073 -0.4622 -0.2382
 2967SOL    HW217865   0.462   2.282   0.048 -0.1108  0.9617 -1.2029
 2968SOL     OW17866   4.733   2.205   2.617  0.3197  0.0334  0.2997
 2968SOL    HW117867   4.678   2.201   2.701 -0.9015  1.2941 -0.4139
 2968SOL    HW217868   4.809   2.268   2.630 -1.1491  1.9686 -0.2379
 2969SOL     OW17869   0.238   1.898   4.272  0.6033  0.2658  0.0986
 2969SOL    HW117870   0.256   1.861   4.181  3.1381 -0.1907  0.7474
 2969SOL    HW217871   0.200   1.827   4.330 -0.3393  0.3633 -0.3899
 2970SOL     OW17872   2.113   5.276   3.740  0.2638  0.2560 -0.6053
 2970SOL    HW117873   2.166   5.213   3.797 -1.8448 -0.4059  0.6903
 2970SOL    HW217874   2.017   5.271   3.766 -0.3938  1.7127 -2.6498
 2971SOL     OW17875   0.263   3.865   2.944 -0.4076 -0.3647 -0.3578
 2971SOL    HW117876   0.168   3.894   2.951 -0.4060 -0.4321 -0.0464
 2971SOL    HW217877   0.267   3.765   2.945 -0.3888 -0.3742 -1.1053
 2972SOL     OW17878   7.835   1.366   2.264  0.1631 -0.4179 -0.3078
 2972SOL    HW117879   7.902   1.371   2.190  0.9626 -1.1846  0.3535
 2972SOL    HW217880   7.808   1.271   2.278 -1.7822 -0.0026 -1.2012
 2973SOL     OW17881   8.394   4.933   1.883 -0.9694  0.4491 -0.2969
 2973SOL    HW117882   8.379   4.850   1.828 -0.4363  0.5648 -0.6224
 2973SOL    HW217883   8.308   4.960   1.927 -1.0357 -0.5755  0.2267
 2974SOL     OW17884   0.287   6.569   2.799  0.8579  0.0387  0.0988
 2974SOL    HW117885   0.197   6.602   2.828  0.6959 -0.4638  0.1743
 2974SOL    HW217886   0.326   6.513   2.872  1.5067  0.7681  0.3203
 2975SOL     OW17887   0.003   4.378   3.971 -0.1881  0.1096  0.4567
 2975SOL    HW117888   0.079   4.426   3.926  1.4490 -2.6843  0.1414
 2975SOL    HW217889  -0.070   4.362   3.905  0.7886 -0.9785 -0.3853
 2977SOL     OW17890   5.077   7.930   3.926  0.6747 -0.0511  0.1758
 2977SOL    HW117891   4.980   7.931   3.951  0.6847 -1.4992  0.3251
 2977SOL    HW217892   5.133   7.948   4.007  0.5251  1.7600 -0.0922
 2978SOL     OW17893   4.633   0.921   1.118  0.4570  0.1118 -0.0110
 2978SOL    HW117894   4.667   0.927   1.024  0.3812 -0.9100 -0.1117
 2978SOL    HW217895   4.661   0.834   1.158  0.1838  0.3915  0.7982
 2979SOL     OW17896   5.432   8.999   2.778 -0.4083  0.1198  0.5368
 2979SOL    HW117897   5.362   8.933   2.751  0.9098 -1.2633  0.3994
 2979SOL    HW217898   5.471   9.041   2.696 -0.8200  0.6387  0.5999
 2980SOL     OW17899   1.871   7.878   3.945  0.6134  0.4638  0.4927
 2980SOL    HW117900   1.953   7.928   3.970  1.6705 -0.2345 -1.4701
 2980SOL    HW217901   1.819   7.930   3.878  1.2338 -0.5994 -0.8415
 2981SOL     OW17902   5.931   9.395   1.465  0.1582 -0.1750 -0.0025
 2981SOL    HW117903   5.932   9.458   1.388 -1.7431 -0.5829 -0.3806
 2981SOL    HW217904   5.929   9.301   1.431  1.8324 -0.4326  0.5617
 2982SOL     OW17905   7.526   8.089   3.262 -0.1759 -0.1498 -0.4694
 2982SOL    HW117906   7.566   8.004   3.296 -0.1796  0.1397  0.2657
 2982SOL    HW217907   7.466   8.128   3.332  0.7114  1.0461 -0.3608
 2983SOL     OW17908   4.819   8.490   2.323 -0.3804 -0.3709 -0.1548
 2983SOL    HW117909   4.749   8.522   2.386  1.7990 -0.0628  2.1991
 2983SOL    HW217910   4.814   8.390   2.315 -0.9707 -0.3674  0.1511
 2984SOL     OW17911   4.130   2.130   3.471 -0.5678  0.3855  0.0019
 2984SOL    HW117912   4.151   2.226   3.449  0.7929  0.0394 -0.2460
 2984SOL    HW217913   4.205   2.072   3.442 -0.6375 -0.5717  1.6837
 2985SOL     OW17914   9.725   9.354   0.550  0.1455 -0.2470 -0.1509
 2985SOL    HW117915   9.649   9.289   0.542  0.6807 -0.7872 -1.0012
 2985SOL    HW217916   9.689   9.446   0.565 -0.6031 -0.8537  1.8551
 2986SOL     OW17917   6.822   7.366   1.915 -0.2659 -0.1193  0.9012
 2986SOL    HW117918   6.825   7.460   1.947 -1.1416 -0.9577  3.5060
 2986SOL    HW217919   6.727   7.339   1.899 -0.1310 -1.0638  1.6935
 2987SOL     OW17920   2.547   3.544   4.179 -0.7434 -0.0601  0.6518
 2987SOL    HW117921   2.623   3.532   4.115  1.1010  0.4031  2.6934
 2987SOL    HW217922   2.472   3.592   4.134  0.4497  0.0961 -1.2090
 2988SOL     OW17923   2.638   4.649   1.118 -0.5832 -0.6195 -0.3884
 2988SOL    HW117924   2.666   4.553   1.121 -0.3136 -0.5109  1.2319
 2988SOL    HW217925   2.717   4.707   1.136 -0.8815 -0.1195 -0.6888
 2990SOL     OW17926   4.218   6.677   3.242 -0.7666 -0.2177 -0.0840
 2990SOL    HW117927   4.216   6.761   3.296  0.9463 -0.4602  0.4077
 2990SOL    HW217928   4.246   6.601   3.300 -0.8920 -0.8595 -0.8521
 2992SOL     OW17929   7.063   7.627   2.587  0.1352 -0.4953 -0.5657
 2992SOL    HW117930   7.119   7.551   2.554  0.0127 -0.6795 -0.3498
 2992SOL    HW217931   7.067   7.631   2.687 -0.9327 -1.0416 -0.5002
 2994SOL     OW17932   4.099   0.463   4.318  0.1644  0.4082 -0.4808
 2994SOL    HW117933   4.058   0.508   4.397  1.0046  0.1820  0.0843
 2994SOL    HW217934   4.161   0.526   4.272 -1.1700  0.9233 -1.6394
 2997SOL     OW17935   7.832   1.071   1.832 -0.2922 -0.0050  0.1510
 2997SOL    HW117936   7.845   1.065   1.733  0.3650  0.9098  0.1839
 2997SOL    HW217937   7.757   1.133   1.852  0.9068  1.4098  0.3022
 3000SOL     OW17938   1.812   3.542   1.143  0.4737 -0.8359 -0.7762
 3000SOL    HW117939   1.906   3.575   1.134  1.0202 -2.5425 -1.5720
 3000SOL    HW217940   1.763   3.557   1.057 -0.0533  0.2198 -0.3031
 3001SOL     OW17941   0.695   0.375   0.289  0.2074  0.1700 -0.2355
 3001SOL    HW117942   0.788   0.338   0.295  0.3406  0.8325  2.0764
 3001SOL    HW217943   0.697   0.464   0.243  0.6084 -0.1882 -0.9097
 3003SOL     OW17944   5.325   8.667   4.089  0.3784 -0.9384 -0.1614
 3003SOL    HW117945   5.374   8.753   4.079  0.5961 -1.0521 -0.0740
 3003SOL    HW217946   5.387   8.591   4.070  0.1129 -1.0662 -0.5303
 3004SOL     OW17947   4.927   3.003   2.302 -0.4758  0.5242  0.8563
 3004SOL    HW117948   4.995   3.020   2.373 -1.3579  0.4795  1.7284
 3004SOL    HW217949   4.935   3.072   2.231 -0.7661  1.6539  1.9022
 3005SOL     OW17950   1.616   3.177   3.733 -0.6625 -0.2898  0.1664
 3005SOL    HW117951   1.544   3.240   3.764 -1.9879 -2.5033  1.7786
 3005SOL    HW217952   1.625   3.183   3.634 -3.2057 -0.0514 -0.0953
 3007SOL     OW17953   4.787   7.793   3.382 -0.2522 -0.0396  0.2533
 3007SOL    HW117954   4.840   7.836   3.454 -1.9731  1.1279  0.8496
 3007SOL    HW217955   4.769   7.697   3.407  0.0088  0.0774  0.8982
 3008SOL     OW17956   1.389   5.064   1.685 -0.2722 -0.1724  1.0444
 3008SOL    HW117957   1.427   5.027   1.769 -0.5417 -1.4598  0.6155
 3008SOL    HW217958   1.336   5.146   1.705  1.6720  0.9226  1.8039
 3009SOL     OW17959   0.495   9.492   1.966 -0.0952 -0.2684  0.0149
 3009SOL    HW117960   0.454   9.404   1.943 -2.1600 -0.3331  3.5027
 3009SOL    HW217961   0.422   9.556   1.992  1.5887  1.6187  0.2123
 3010SOL     OW17962   7.393   8.425   3.120 -0.3360  0.1935 -0.1740
 3010SOL    HW117963   7.472   8.363   3.114 -0.0939  0.6033 -1.1860
 3010SOL    HW217964   7.352   8.417   3.211  1.8733  1.2019  0.9523
 3011SOL     OW17965   0.031   4.754   3.801 -0.3409  0.3216 -0.1274
 3011SOL    HW117966   0.010   4.695   3.723  1.2456 -0.5211  0.0663
 3011SOL    HW217967  -0.017   4.841   3.791 -1.1375 -0.2460 -1.4079
 3012SOL     OW17968   6.852   7.001   3.879 -0.0173  0.1665 -0.2859
 3012SOL    HW117969   6.859   6.944   3.961 -0.2788  0.0803 -0.3235
 3012SOL    HW217970   6.876   6.946   3.798  0.6365  0.3599 -0.2276
 3013SOL     OW17971   6.212   9.677   1.796 -0.4615  0.0452 -0.1201
 3013SOL    HW117972   6.177   9.588   1.766 -0.5304 -0.2332  0.7854
 3013SOL    HW217973   6.181   9.696   1.889 -0.2611  0.9168 -0.2271
 3014SOL     OW17974   2.992   4.968   2.070  0.1897 -0.2383  0.0331
 3014SOL    HW117975   2.970   5.054   2.025  0.6999 -0.5963 -0.9232
 3014SOL    HW217976   3.068   4.924   2.022  1.9522  0.2098  2.2841
 3015SOL     OW17977   0.197   6.812   1.025  0.6299 -0.3260  0.4156
 3015SOL    HW117978   0.263   6.778   1.091  1.5645 -0.3520 -0.5198
 3015SOL    HW217979   0.115   6.755   1.026  0.5402 -0.1718  1.7189
 3016SOL     OW17980   2.749   2.000   1.110 -0.1812  0.3503 -0.1531
 3016SOL    HW117981   2.664   1.966   1.151 -0.1737  0.4434 -0.0614
 3016SOL    HW217982   2.785   1.931   1.048 -0.2087  0.2208 -0.0263
 3017SOL     OW17983   1.329   0.709   3.409  0.3685 -0.1555  0.1254
 3017SOL    HW117984   1.403   0.650   3.442  1.5920  0.2466 -1.7695
 3017SOL    HW217985   1.277   0.660   3.339  1.3008  0.9068 -1.3570
 3018SOL     OW17986   5.126   0.543   2.087  0.1480  0.0009  0.3924
 3018SOL    HW117987   5.100   0.507   2.177  0.4394 -1.8242 -0.2441
 3018SOL    HW217988   5.110   0.474   2.017  0.3522  1.2522 -0.9282
 3019SOL     OW17989   3.574   8.970   3.888 -0.5320 -0.4863  0.1857
 3019SOL    HW117990   3.548   8.879   3.856  0.1601  0.1954 -2.4080
 3019SOL    HW217991   3.560   9.036   3.815  1.2871  1.1001  1.2332
 3020SOL     OW17992   2.110   0.422   3.797 -0.1047  0.2123  0.2151
 3020SOL    HW117993   2.162   0.507   3.807  0.0907 -0.0423  1.3898
 3020SOL    HW217994   2.150   0.351   3.855  1.0095 -1.2896 -2.2840
 3021SOL     OW17995   9.988   9.447   3.235  0.1741  0.4108  0.4972
 3021SOL    HW117996  10.063   9.411   3.291  1.4637  0.9651 -0.8255
 3021SOL    HW217997   9.989   9.547   3.238  0.6884  0.4685 -1.0178
 3022SOL     OW17998   0.392   2.645   3.750  0.3215 -0.2406 -0.0484
 3022SOL    HW117999   0.335   2.567   3.777  2.2869 -1.5460  0.4352
 3022SOL    HW218000   0.400   2.647   3.650  1.0407 -1.2491 -0.0192
 3025SOL     OW18001   9.790   5.779   1.351 -0.0020 -0.0598 -0.0716
 3025SOL    HW118002   9.744   5.698   1.386  2.2677 -0.9701  0.9135
 3025SOL    HW218003   9.800   5.773   1.252  0.4286 -1.1528  0.0352
 3026SOL     OW18004   1.859   6.237   1.746 -0.3812 -0.5563 -0.8769
 3026SOL    HW118005   1.761   6.221   1.763 -0.7648 -0.0459 -2.4722
 3026SOL    HW218006   1.871   6.264   1.650  1.2025  0.4478 -0.3990
 3027SOL     OW18007   2.770   6.265   0.194 -0.4240 -0.1196  0.5167
 3027SOL    HW118008   2.857   6.217   0.178 -0.8014  0.1082 -2.6942
 3027SOL    HW218009   2.773   6.354   0.149 -2.6360 -0.4872 -0.4373
 3028SOL     OW18010   2.866   8.081   1.760 -0.1934 -0.4574  0.3059
 3028SOL    HW118011   2.848   8.071   1.858 -0.3918  1.8913  0.5259
 3028SOL    HW218012   2.789   8.128   1.717 -0.0958 -1.4543 -0.9891
 3029SOL     OW18013   4.786   4.485   0.232  0.2732 -0.3808  0.1160
 3029SOL    HW118014   4.755   4.562   0.288  0.7826 -0.8534  1.0649
 3029SOL    HW218015   4.761   4.501   0.137  0.4362  0.9933  0.2912
 3030SOL     OW18016   1.397   9.104   2.203  0.2687 -0.6070 -0.5712
 3030SOL    HW118017   1.353   9.182   2.157  0.7703 -0.0405 -0.1020
 3030SOL    HW218018   1.408   9.125   2.301  2.1966 -0.4633 -0.8018
 3031SOL     OW18019   8.836   7.682   0.129  0.3240 -0.3792 -0.0586
 3031SOL    HW118020   8.821   7.683   0.228 -0.9037  0.3523 -0.2521
 3031SOL    HW218021   8.906   7.749   0.106 -1.8796  1.9905 -0.0656
 3032SOL     OW18022   3.295   3.893   3.567 -0.1711 -0.2129 -0.0628
 3032SOL    HW118023   3.245   3.893   3.654  0.7197 -0.7126  0.4539
 3032SOL    HW218024   3.288   3.984   3.525  1.1405  0.6490  1.5458
 3033SOL     OW18025   3.611   9.200   0.856 -0.1964  0.0171  0.5817
 3033SOL    HW118026   3.684   9.269   0.854 -1.6137  1.5382 -0.9196
 3033SOL    HW218027   3.632   9.127   0.791  0.7825 -0.4141  1.3722
 3034SOL     OW18028   3.881   6.613   3.141  0.3258  0.2426 -0.5723
 3034SOL    HW118029   3.916   6.519   3.141 -0.0907  0.0901  0.2403
 3034SOL    HW218030   3.939   6.669   3.082  1.6860 -0.1130  0.4011
 3035SOL     OW18031   4.393   6.018   2.265  0.0627 -0.4359  0.3973
 3035SOL    HW118032   4.395   6.072   2.181 -2.1886 -2.7916 -1.2671
 3035SOL    HW218033   4.433   6.071   2.340 -0.4089  2.7838 -1.5194
 3036SOL     OW18034   3.087   3.818   4.207 -0.2123 -0.8383  0.0944
 3036SOL    HW118035   3.074   3.908   4.167  2.2475 -0.4574  0.0372
 3036SOL    HW218036   3.130   3.757   4.140  2.8056 -0.5460  1.6367
 3037SOL     OW18037   5.562   0.211   1.518  0.2657  0.1260 -0.4462
 3037SOL    HW118038   5.632   0.140   1.525 -1.7914 -1.8580  0.5619
 3037SOL    HW218039   5.526   0.213   1.425  0.0030 -0.4765 -0.3583
 3039SOL     OW18040   2.851   6.793   3.976  0.3337 -0.7282 -0.7161
 3039SOL    HW118041   2.893   6.706   4.002 -0.9249 -1.3510 -0.7381
 3039SOL    HW218042   2.790   6.779   3.899 -1.3002 -0.1878  0.4394
 3040SOL     OW18043   3.991   4.064   3.616 -0.0611  0.5799 -0.2474
 3040SOL    HW118044   3.948   4.063   3.525 -1.7282 -1.7352  0.5151
 3040SOL    HW218045   3.925   4.033   3.684  1.9586 -0.1639  1.4151
 3041SOL     OW18046   2.567   6.827   1.881  0.6080 -0.1987  0.5886
 3041SOL    HW118047   2.521   6.847   1.968  1.1575  0.5394  0.7164
 3041SOL    HW218048   2.617   6.908   1.851  0.6052 -0.5267 -0.3066
 3043SOL     OW18049   3.452   1.602   4.126  0.0881 -0.2660 -0.0050
 3043SOL    HW118050   3.515   1.662   4.078 -0.8466  0.4883 -0.3227
 3043SOL    HW218051   3.410   1.538   4.062  0.3000 -0.5575  0.1476
 3045SOL     OW18052   4.213   2.589   3.197 -0.5464 -0.2402  0.1174
 3045SOL    HW118053   4.170   2.679   3.202  0.3488  0.1343  1.5174
 3045SOL    HW218054   4.146   2.521   3.168 -1.7812  0.5154  1.1703
 3046SOL     OW18055   8.764   6.325   2.626  0.7166 -0.0286  0.4802
 3046SOL    HW118056   8.777   6.380   2.708  0.1195 -0.8539  1.1308
 3046SOL    HW218057   8.756   6.229   2.651  1.8352 -0.4313 -0.6521
 3047SOL     OW18058   2.764   3.461   2.104 -0.1193 -0.3574 -0.2280
 3047SOL    HW118059   2.733   3.553   2.132  0.0705  0.3457 -2.2454
 3047SOL    HW218060   2.848   3.438   2.153 -0.6888  0.1225  1.0151
 3048SOL     OW18061   4.834   6.913   2.176 -0.2997  0.2531 -0.1301
 3048SOL    HW118062   4.875   6.919   2.267 -1.2542  1.2613  0.2477
 3048SOL    HW218063   4.735   6.916   2.184 -0.3696  2.1224 -1.3025
 3049SOL     OW18064   2.916   2.982   2.537  0.3818  0.4007 -0.0595
 3049SOL    HW118065   2.956   3.034   2.613  0.8705 -0.2933  0.1569
 3049SOL    HW218066   2.863   3.044   2.479  2.5518  1.5052 -0.9033
 3050SOL     OW18067   6.706   1.073   3.341 -0.1835  0.1191  0.0547
 3050SOL    HW118068   6.801   1.105   3.343  0.1081 -0.6657 -0.8617
 3050SOL    HW218069   6.645   1.150   3.319  0.3064  0.4842 -0.0326
 3051SOL     OW18070   4.413   3.546   0.666 -0.2927  0.5242  0.3592
 3051SOL    HW118071   4.437   3.606   0.741 -0.5389 -0.4553  1.2366
 3051SOL    HW218072   4.314   3.547   0.652 -0.4415 -0.6151  1.2073
 3052SOL     OW18073   8.646   5.779   1.413  0.3066 -0.2360  0.0260
 3052SOL    HW118074   8.598   5.810   1.331  0.5985  3.1999  1.0478
 3052SOL    HW218075   8.743   5.765   1.391  0.7080  2.2134  0.0765
 3053SOL     OW18076   6.703   9.373   4.030 -0.3843 -0.1559 -0.2116
 3053SOL    HW118077   6.650   9.426   3.964 -0.5907 -0.9797 -0.7162
 3053SOL    HW218078   6.768   9.315   3.980 -2.0203 -2.3943  0.1928
 3054SOL     OW18079   1.227   0.738   3.907 -0.2222 -0.0310 -0.3855
 3054SOL    HW118080   1.267   0.814   3.959 -0.7660 -1.2037  1.7802
 3054SOL    HW218081   1.291   0.709   3.836  0.7621  1.2475 -0.0386
 3055SOL     OW18082   1.751   1.400   3.975  0.0472  0.0010  0.1068
 3055SOL    HW118083   1.774   1.303   3.986  0.3856 -0.3321 -3.0758
 3055SOL    HW218084   1.835   1.454   3.977  0.2917 -0.2417 -2.2364
 3056SOL     OW18085   0.105   9.630   1.167  0.5599 -0.3716 -0.2705
 3056SOL    HW118086   0.102   9.555   1.232 -0.3716  0.5758  0.8051
 3056SOL    HW218087   0.027   9.623   1.105  0.3854 -0.2103 -0.0706
 3058SOL     OW18088   1.897   4.084   3.334 -0.0258 -0.2515  0.2018
 3058SOL    HW118089   1.809   4.125   3.311  0.2511 -0.5908 -1.5236
 3058SOL    HW218090   1.883   3.991   3.368 -0.2561 -0.7947 -1.3432
 3059SOL     OW18091   7.571   0.302   2.302  0.0667 -0.1570 -0.2376
 3059SOL    HW118092   7.570   0.401   2.309  1.8697 -0.1448  0.0258
 3059SOL    HW218093   7.508   0.273   2.230  0.6778  1.2665 -1.3654
 3061SOL     OW18094   7.380   0.913   2.894 -0.1248  0.3366  0.3065
 3061SOL    HW118095   7.381   0.848   2.819  2.7518 -0.6972  1.1737
 3061SOL    HW218096   7.296   0.902   2.947 -0.3032 -1.7253 -0.3758
 3062SOL     OW18097   1.388   9.685   1.277  0.2640 -0.1467 -0.0019
 3062SOL    HW118098   1.432   9.669   1.365  0.9621  1.2663 -0.0740
 3062SOL    HW218099   1.307   9.627   1.268  1.8786 -2.5129  0.3086
 3063SOL     OW18100   2.739   7.176   0.291 -0.2035  0.2239  0.8186
 3063SOL    HW118101   2.793   7.261   0.288 -2.8009  1.8617 -0.7302
 3063SOL    HW218102   2.777   7.110   0.227 -0.1891  1.4791 -0.4867
 3064SOL     OW18103   9.830   6.594   1.623 -0.3848  0.1549  0.4058
 3064SOL    HW118104   9.930   6.595   1.621 -0.3420  0.8709  2.1374
 3064SOL    HW218105   9.796   6.685   1.598 -0.4773  1.0021  3.3657
 3065SOL     OW18106   0.873   6.395   3.933 -0.1236  0.2640 -0.0047
 3065SOL    HW118107   0.779   6.364   3.942  0.2647 -1.2663 -1.0941
 3065SOL    HW218108   0.905   6.430   4.021 -0.9194 -1.4378  0.9801
 3066SOL     OW18109   0.789   4.088   2.123  0.3023  0.3721  0.0181
 3066SOL    HW118110   0.748   4.061   2.211  0.1969  0.0934 -0.1143
 3066SOL    HW218111   0.718   4.126   2.064  0.2320 -0.1138 -0.2126
 3067SOL     OW18112   9.879   1.652   0.573  0.5602 -0.0501  0.2127
 3067SOL    HW118113   9.841   1.649   0.480 -0.4821  1.8746  0.5484
 3067SOL    HW218114   9.820   1.600   0.634 -0.3409  1.0287  0.2963
 3068SOL     OW18115   0.491   9.083   2.970  0.7889  0.1707 -0.1941
 3068SOL    HW118116   0.470   9.177   2.999  0.9228  0.9706 -2.5590
 3068SOL    HW218117   0.406   9.036   2.945  0.9582  0.6482 -1.7625
 3069SOL     OW18118   0.836   5.625   3.506 -0.3719 -0.2054 -0.0439
 3069SOL    HW118119   0.856   5.654   3.412 -0.1701  2.7666  0.8785
 3069SOL    HW218120   0.920   5.587   3.547 -0.3856 -1.2294 -0.9273
 3070SOL     OW18121   3.827   1.566   2.622 -0.1768  0.2631  0.0078
 3070SOL    HW118122   3.895   1.502   2.659 -0.2658 -0.1119 -0.4791
 3070SOL    HW218123   3.739   1.551   2.668 -0.1635  0.1270 -0.0119
 3071SOL     OW18124   7.801   2.937   2.860 -0.1153  0.0210  0.0052
 3071SOL    HW118125   7.725   2.900   2.913  0.5531  0.8475  1.5793
 3071SOL    HW218126   7.869   2.976   2.922  1.2659 -0.0825 -1.4158
 3072SOL     OW18127   0.194   2.051   1.625 -0.5010  0.0683 -0.2958
 3072SOL    HW118128   0.140   2.072   1.545 -0.0590  0.1960 -0.5644
 3072SOL    HW218129   0.236   1.960   1.614  0.1013  0.3659 -0.5124
 3073SOL     OW18130   5.525   9.585   1.639 -0.2412 -0.0239  0.0449
 3073SOL    HW118131   5.542   9.651   1.713  0.7347  1.8500 -1.7958
 3073SOL    HW218132   5.469   9.628   1.569  0.2776 -1.2243 -1.1117
 3075SOL     OW18133   6.478   7.574   3.552  0.6846  0.8837  0.3393
 3075SOL    HW118134   6.541   7.499   3.569  0.4269  0.6105  0.0992
 3075SOL    HW218135   6.428   7.596   3.635 -2.7048 -2.4069 -0.7263
 3076SOL     OW18136   6.623   9.882   2.993 -0.1040 -0.5172  0.0456
 3076SOL    HW118137   6.686   9.958   3.011 -0.3268 -0.1140 -0.8053
 3076SOL    HW218138   6.580   9.853   3.078  2.3121 -1.7677  0.8584
 3077SOL     OW18139   1.410   5.664   3.904 -0.3880 -0.9163 -0.3910
 3077SOL    HW118140   1.371   5.690   3.992 -0.2252  2.0294 -1.1380
 3077SOL    HW218141   1.355   5.703   3.830  1.0804 -0.9932 -1.5620
 3078SOL     OW18142   4.327   9.077   0.069  0.0356 -0.2967 -0.6051
 3078SOL    HW118143   4.383   9.048  -0.008 -1.8016 -2.0347 -1.3450
 3078SOL    HW218144   4.258   9.142   0.037 -0.4700 -0.7047 -0.3588
 3080SOL     OW18145   0.704   8.868   0.249 -0.1867 -0.7027  0.4812
 3080SOL    HW118146   0.655   8.951   0.276  2.4869  1.1416 -0.1592
 3080SOL    HW218147   0.681   8.845   0.154  0.6530  0.5187 -0.0258
 3081SOL     OW18148   0.741   6.792   3.838  0.4549  0.0955 -0.3377
 3081SOL    HW118149   0.738   6.788   3.738 -1.9945 -1.8243 -0.2331
 3081SOL    HW218150   0.830   6.759   3.870  0.7464 -0.6450 -1.8569
 3082SOL     OW18151   0.302   4.038   0.957 -0.6802 -0.4534  0.2408
 3082SOL    HW118152   0.387   4.067   1.000 -0.8466  1.9276 -0.9639
 3082SOL    HW218153   0.243   3.996   1.026  0.6800 -0.3945  1.4719
 3084SOL     OW18154   3.120   9.061   1.807 -0.8964  0.8491 -0.6801
 3084SOL    HW118155   3.204   9.059   1.861 -1.2382 -0.4693 -0.1795
 3084SOL    HW218156   3.141   9.089   1.713  0.2835 -0.6248 -0.8663
 3085SOL     OW18157   8.697   5.874   3.331  0.3610 -0.0536 -0.5394
 3085SOL    HW118158   8.599   5.865   3.348  0.9438 -1.2977  2.5248
 3085SOL    HW218159   8.732   5.790   3.291 -0.0168  0.8822 -2.9281
 3086SOL     OW18160   9.706   6.271   3.383  0.3685  0.1357 -0.1464
 3086SOL    HW118161   9.754   6.224   3.457 -0.5001 -0.4486  0.0675
 3086SOL    HW218162   9.768   6.285   3.306  0.5605 -1.6948 -0.3535
 3087SOL     OW18163   5.143   1.325   2.966  0.2536 -0.4086  0.3241
 3087SOL    HW118164   5.159   1.270   2.884  0.0120  1.1863 -0.8086
 3087SOL    HW218165   5.227   1.328   3.020  0.7160 -0.6279 -0.3742
 3088SOL     OW18166   0.154   9.912   3.713 -0.2748  0.4256  0.0598
 3088SOL    HW118167   0.152   9.885   3.616 -2.6627  3.2144 -0.7378
 3088SOL    HW218168   0.233   9.972   3.728 -0.2125  0.4418 -0.3076
 3089SOL     OW18169   6.140   9.357   4.040 -0.1619  0.7425 -0.0408
 3089SOL    HW118170   6.045   9.370   4.068  0.6053  1.5848  2.3020
 3089SOL    HW218171   6.146   9.359   3.940 -3.0518 -2.6559 -0.3774
 3090SOL     OW18172   9.612   4.890   4.274  0.6493  0.2019 -0.5894
 3090SOL    HW118173   9.640   4.939   4.192  0.9576  1.8331  0.4738
 3090SOL    HW218174   9.690   4.881   4.337 -0.6980  3.3917  1.6896
 3091SOL     OW18175   4.956   0.015   3.040  0.3471  0.4361 -0.2855
 3091SOL    HW118176   4.960   0.032   2.941 -0.4122  0.6875 -0.2749
 3091SOL    HW218177   4.862  -0.006   3.066  0.7838 -1.0945  0.1474
 3092SOL     OW18178   3.505   4.548   2.681 -0.2370 -0.0952 -0.1890
 3092SOL    HW118179   3.441   4.579   2.751 -0.2670 -2.0935  0.6869
 3092SOL    HW218180   3.475   4.584   2.592 -0.7899  1.5776  0.6489
 3093SOL     OW18181   4.390   1.887   3.856 -0.1694 -0.2042 -0.0944
 3093SOL    HW118182   4.311   1.936   3.894 -0.9343 -1.0066 -0.6302
 3093SOL    HW218183   4.457   1.953   3.823 -0.9961  0.4929 -0.4123
 3095SOL     OW18184   6.274   9.420   4.277  0.0481  0.3410 -0.3326
 3095SOL    HW118185   6.229   9.406   4.364  0.0228  1.2070 -0.2026
 3095SOL    HW218186   6.222   9.374   4.204 -1.4833  1.9920 -0.3074
 3096SOL     OW18187   0.868   9.529   4.198  0.5693  0.2203  0.3195
 3096SOL    HW118188   0.847   9.487   4.110  1.0017  0.1095  0.2656
 3096SOL    HW218189   0.791   9.517   4.260  0.7603 -0.8250  0.3658
 3097SOL     OW18190   2.683   9.020   3.708 -0.8467 -0.2405  0.0465
 3097SOL    HW118191   2.586   8.996   3.703 -1.3500  2.0046 -1.2350
 3097SOL    HW218192   2.693   9.119   3.712  1.4633 -0.3652 -1.6716
 3100SOL     OW18193   5.425   9.715   4.158  0.1204  0.2418  0.4105
 3100SOL    HW118194   5.458   9.799   4.201 -0.9244  0.3726  0.9851
 3100SOL    HW218195   5.430   9.641   4.225 -2.7298  0.7212  1.2050
 3101SOL     OW18196   3.184   2.566   4.406  0.8121 -0.4657 -0.3837
 3101SOL    HW118197   3.216   2.557   4.312  1.2947 -0.2638 -0.2454
 3101SOL    HW218198   3.217   2.653   4.444  1.1456 -0.8278  0.1666
 3102SOL     OW18199   5.284   7.992   1.816 -0.3353  0.2297  0.8732
 3102SOL    HW118200   5.199   8.037   1.843 -0.0361  1.3075  0.0312
 3102SOL    HW218201   5.306   8.015   1.722  0.9202  0.0044  1.0956
 3103SOL     OW18202   1.392   2.265   1.937  0.1027  0.4579 -0.3363
 3103SOL    HW118203   1.382   2.177   1.891  0.9224  0.8524 -1.2935
 3103SOL    HW218204   1.489   2.291   1.938 -0.1020  1.2141  0.1907
 3104SOL     OW18205   2.690   6.895   3.146 -0.2153  0.2310  0.1137
 3104SOL    HW118206   2.789   6.883   3.150 -0.2999 -0.7129 -0.4926
 3104SOL    HW218207   2.653   6.901   3.238  0.1363 -1.7166  0.3982
 3105SOL     OW18208   9.635   2.035   3.363 -0.0001 -0.2481  0.2417
 3105SOL    HW118209   9.564   2.057   3.296  0.4770 -1.4230 -0.6863
 3105SOL    HW218210   9.668   1.942   3.347  2.9793  0.8556 -0.4779
 3106SOL     OW18211   2.305   8.819   1.201  0.0133 -0.0233 -0.6024
 3106SOL    HW118212   2.358   8.746   1.159 -1.3155 -0.3576 -1.7430
 3106SOL    HW218213   2.355   8.857   1.278  1.4591 -0.9966 -1.0478
 3107SOL     OW18214   1.462   8.525   1.535  0.5467 -0.7461  0.4332
 3107SOL    HW118215   1.469   8.463   1.456 -0.1923 -0.2651 -0.0140
 3107SOL    HW218216   1.554   8.553   1.562  0.8431 -1.4083  0.1353
 3108SOL     OW18217   2.405   5.867   0.738 -0.6598  0.1272  0.4823
 3108SOL    HW118218   2.348   5.788   0.760  0.0888 -0.1540  1.4401
 3108SOL    HW218219   2.349   5.936   0.692 -1.1800 -1.2009 -0.9166
 3109SOL     OW18220   8.886   9.765   3.387  0.1734 -0.0099  0.5303
 3109SOL    HW118221   8.893   9.806   3.296 -2.8065  0.9615  0.6747
 3109SOL    HW218222   8.950   9.810   3.449  0.3531  1.1280 -0.4591
 3110SOL     OW18223   0.329   3.789   2.266 -0.0528  0.2935 -0.3164
 3110SOL    HW118224   0.320   3.718   2.336  1.0555 -0.0759 -0.5415
 3110SOL    HW218225   0.375   3.751   2.186 -0.7705  0.8790 -1.0114
 3111SOL     OW18226   8.899   1.592   3.528 -0.7011 -0.0684  0.1349
 3111SOL    HW118227   8.984   1.583   3.581 -0.8347 -2.0221  0.0426
 3111SOL    HW218228   8.921   1.625   3.436  0.0639 -1.3564 -0.1541
 3112SOL     OW18229   3.029   6.635   2.070 -0.2275 -0.1626  0.2965
 3112SOL    HW118230   2.969   6.672   1.999  0.4439 -0.3517 -0.3746
 3112SOL    HW218231   3.111   6.597   2.027 -0.6764 -1.9661  1.0302
 3113SOL     OW18232   1.956   7.220   0.362 -0.2507 -0.1895 -0.3606
 3113SOL    HW118233   2.025   7.271   0.413  0.0818 -1.0307  0.0316
 3113SOL    HW218234   1.867   7.264   0.374 -0.7941 -2.1036  3.5372
 3115SOL     OW18235   9.967   8.847   0.346  0.2395 -0.0041 -0.1704
 3115SOL    HW118236   9.941   8.759   0.385 -1.8905  0.1205 -1.2133
 3115SOL    HW218237  10.051   8.879   0.390 -0.4928 -1.2026  2.2465
 3116SOL     OW18238   5.504   7.521   3.459  0.1206  0.2754 -0.1775
 3116SOL    HW118239   5.529   7.566   3.373 -1.5724  1.8453  0.1179
 3116SOL    HW218240   5.453   7.437   3.439  0.9092 -0.0801 -0.7138
 3117SOL     OW18241   2.231   0.612   0.190 -0.6786  0.0479 -0.2806
 3117SOL    HW118242   2.327   0.608   0.217 -0.8097 -1.5120 -0.0113
 3117SOL    HW218243   2.173   0.590   0.269 -1.4894  5.3963  0.8264
 3118SOL     OW18244   2.652   7.088   1.790  0.1035  0.1829 -0.0032
 3118SOL    HW118245   2.677   7.064   1.696  0.3781 -0.8200  0.3158
 3118SOL    HW218246   2.614   7.181   1.792  1.4972  0.7830 -0.8705
 3119SOL     OW18247   5.060   0.848   3.159 -0.4023 -0.1663  0.2620
 3119SOL    HW118248   5.141   0.905   3.141 -0.1758 -0.3647  0.6426
 3119SOL    HW218249   5.065   0.764   3.105 -1.2880  0.6718 -1.1532
 3120SOL     OW18250   0.851   2.807   2.790  0.0872 -0.3728 -0.0097
 3120SOL    HW118251   0.941   2.764   2.803 -0.3518 -1.5266 -0.7175
 3120SOL    HW218252   0.805   2.815   2.878  0.7837 -0.0077  0.3231
 3121SOL     OW18253   3.441   4.806   2.540  0.8657  0.0016 -0.1164
 3121SOL    HW118254   3.533   4.782   2.511  0.7423  0.8541 -1.2804
 3121SOL    HW218255   3.423   4.902   2.517 -1.2642 -0.8935 -2.4288
 3122SOL     OW18256   2.612   9.571   4.385 -0.6691 -0.1055 -0.0306
 3122SOL    HW118257   2.587   9.562   4.481  0.7363 -2.0495  0.1761
 3122SOL    HW218258   2.585   9.661   4.352  0.0516  1.1048  2.5524
 3123SOL     OW18259   1.115   3.289   0.768  0.1453  0.0652  0.4735
 3123SOL    HW118260   1.053   3.310   0.843 -0.2737  0.1408  0.1117
 3123SOL    HW218261   1.064   3.290   0.682  0.2498 -1.7057  0.3648
 3124SOL     OW18262   4.158   0.903   2.452 -0.0006  0.1290  0.7477
 3124SOL    HW118263   4.240   0.865   2.408 -0.7888 -0.2368 -0.4466
 3124SOL    HW218264   4.184   0.951   2.535  1.3673 -0.4751  0.6897
 3126SOL     OW18265   7.645   7.141   1.660 -0.7577 -0.0030  0.1099
 3126SOL    HW118266   7.735   7.115   1.696 -1.3268  0.3138  1.7918
 3126SOL    HW218267   7.655   7.216   1.595  0.2423 -0.3170 -0.1088
 3129SOL     OW18268   0.274   2.359   4.269 -0.0958 -0.1138  0.6049
 3129SOL    HW118269   0.281   2.301   4.349 -0.9563  0.6134  1.2207
 3129SOL    HW218270   0.365   2.375   4.231  0.1000 -2.2845  0.1052
 3130SOL     OW18271   7.489   2.886   2.917  0.2094 -0.4877 -0.2498
 3130SOL    HW118272   7.518   2.828   2.993 -0.2161  0.4780  0.6585
 3130SOL    HW218273   7.412   2.943   2.945  1.2483  1.2435 -0.8067
 3133SOL     OW18274   3.245   7.529   3.475  0.6462 -0.2317  0.1374
 3133SOL    HW118275   3.151   7.497   3.465  0.6429 -0.1473 -0.1040
 3133SOL    HW218276   3.247   7.610   3.534  0.3563  0.8339 -1.2914
 3134SOL     OW18277   1.815   4.845   3.404 -0.0245  0.1908  0.2038
 3134SOL    HW118278   1.875   4.924   3.395  0.3254  0.0329  1.0355
 3134SOL    HW218279   1.861   4.775   3.460  0.0739 -1.0037 -1.3592
 3135SOL     OW18280   3.571   7.731   3.478 -0.5817  0.0796  0.3694
 3135SOL    HW118281   3.618   7.799   3.423 -1.4194  0.1442 -0.2588
 3135SOL    HW218282   3.521   7.668   3.419 -2.5671  0.9431  1.1059
 3136SOL     OW18283   8.453   4.974   3.351  0.8982 -0.3478  0.7823
 3136SOL    HW118284   8.551   4.965   3.371  0.9498 -2.2832 -0.2150
 3136SOL    HW218285   8.401   4.912   3.410  0.3293  0.2681  0.9250
 3137SOL     OW18286   0.264   9.157   1.666  0.3697 -0.2972 -0.0416
 3137SOL    HW118287   0.235   9.243   1.708  1.3581  0.4521 -0.8617
 3137SOL    HW218288   0.256   9.164   1.567  1.8890 -0.5958 -0.1942
 3139SOL     OW18289   4.914   3.819   0.878 -0.7053  0.2643  0.0394
 3139SOL    HW118290   4.890   3.891   0.813 -1.1301  0.0520 -0.0362
 3139SOL    HW218291   4.831   3.785   0.923 -0.5275 -0.3419 -0.0898
 3141SOL     OW18292   5.497   1.180   3.804  0.1674  0.4369 -0.0865
 3141SOL    HW118293   5.432   1.221   3.868 -0.6903  0.2015 -0.8153
 3141SOL    HW218294   5.482   1.216   3.712  0.4400 -0.3337 -0.4386
 3142SOL     OW18295   2.321   0.686   4.292 -0.6100  0.2215  0.3047
 3142SOL    HW118296   2.248   0.742   4.254 -0.0559  0.9476  0.3077
 3142SOL    HW218297   2.335   0.605   4.234 -0.8616  0.5000 -0.1426
 3143SOL     OW18298   3.440   6.440   1.606 -0.2492  0.2367 -0.7945
 3143SOL    HW118299   3.395   6.445   1.517  1.0409  0.0209 -1.4562
 3143SOL    HW218300   3.462   6.345   1.628 -0.7284  0.2677 -0.1535
 3144SOL     OW18301   0.402   0.072   1.181 -0.1096  0.4885  0.7751
 3144SOL    HW118302   0.311   0.109   1.164 -0.1970 -0.7250 -1.6185
 3144SOL    HW218303   0.396  -0.002   1.248 -0.8882  0.3653  0.5718
 3145SOL     OW18304   3.084   9.229   4.147 -0.6909  0.1126 -0.3875
 3145SOL    HW118305   3.054   9.218   4.242 -0.2234  1.3612 -0.0970
 3145SOL    HW218306   3.035   9.162   4.090 -2.3034  0.5398  0.4487
 3146SOL     OW18307   5.783   9.734   3.491 -0.2081  0.0731 -0.0479
 3146SOL    HW118308   5.788   9.638   3.461 -1.9970 -0.5367  1.5222
 3146SOL    HW218309   5.858   9.785   3.449  1.0888 -2.1124 -0.5180
 3147SOL     OW18310   3.468   1.041   1.171  0.1870 -0.1212 -0.4657
 3147SOL    HW118311   3.403   1.013   1.100  0.5363  0.1743 -0.9030
 3147SOL    HW218312   3.558   1.004   1.151 -0.0843 -1.5082  0.7666
 3148SOL     OW18313   2.526   5.990   3.620 -0.4081 -0.3621  0.1954
 3148SOL    HW118314   2.439   5.955   3.585  0.2568 -0.2647 -1.6319
 3148SOL    HW218315   2.582   6.021   3.543  1.1845 -0.2935  1.3612
 3149SOL     OW18316   5.419   8.921   4.058  0.0637  0.2074  0.0327
 3149SOL    HW118317   5.359   8.976   4.117  2.5441 -0.7851  3.6644
 3149SOL    HW218318   5.482   8.980   4.010 -0.5597  0.8882  0.0447
 3150SOL     OW18319   1.034   1.711   1.612  0.0781  0.9873 -0.0932
 3150SOL    HW118320   1.093   1.651   1.558  1.9616  0.3172  2.5978
 3150SOL    HW218321   0.955   1.738   1.557  0.7144 -1.5139 -2.3726
 3151SOL     OW18322   9.347   2.410   0.578  0.4655  0.1544  0.2557
 3151SOL    HW118323   9.398   2.495   0.585  0.9806 -0.2511  1.6418
 3151SOL    HW218324   9.308   2.401   0.486  2.0555  0.9318 -0.5057
 3153SOL     OW18325   8.332   2.837   0.554  0.0950  0.4138 -0.1937
 3153SOL    HW118326   8.417   2.862   0.602  0.8486 -1.6014 -0.4123
 3153SOL    HW218327   8.254   2.855   0.614  0.9308 -0.8342  1.3317
 3154SOL     OW18328   2.118   0.024   0.945 -0.2655 -0.4875 -0.1433
 3154SOL    HW118329   2.116  -0.071   0.976  2.9135 -0.2773  0.8649
 3154SOL    HW218330   2.136   0.026   0.847  2.3129 -0.9490  0.2667
 3155SOL     OW18331   9.578   5.397   2.693  0.2512  0.5671  0.1143
 3155SOL    HW118332   9.604   5.302   2.714  1.6495  1.3126  1.8524
 3155SOL    HW218333   9.537   5.439   2.774  1.0374  1.9364 -0.1858
 3156SOL     OW18334   7.530   0.584   2.262  0.1041  0.2289 -0.1203
 3156SOL    HW118335   7.612   0.581   2.205 -0.4449 -2.3394 -0.8293
 3156SOL    HW218336   7.523   0.674   2.305  1.5540  1.6050 -2.6076
 3158SOL     OW18337   0.862   5.216   4.130  0.1767 -0.4557  0.3044
 3158SOL    HW118338   0.867   5.210   4.030 -0.3924 -1.8881  0.3430
 3158SOL    HW218339   0.790   5.281   4.156  1.9701  1.7736 -0.2051
 3159SOL     OW18340   4.192   0.823   1.411  0.2478 -0.9974  0.5111
 3159SOL    HW118341   4.248   0.869   1.342  0.5388 -0.8928  0.8146
 3159SOL    HW218342   4.251   0.778   1.478 -0.0425 -3.7866 -1.0656
 3160SOL     OW18343   5.159   9.185   3.961 -0.0944 -0.2415 -0.3995
 3160SOL    HW118344   5.190   9.125   3.888  1.8325  0.2741 -0.0433
 3160SOL    HW218345   5.106   9.260   3.923  0.6358 -0.1491 -1.2535
 3161SOL     OW18346   1.282   8.536   2.412 -0.4788 -0.0902  0.4511
 3161SOL    HW118347   1.203   8.594   2.431 -2.5696 -2.7026  0.1042
 3161SOL    HW218348   1.355   8.557   2.477 -1.2025  2.7946  0.3888
 3162SOL     OW18349   0.809   9.772   0.035  0.4446  0.3589  0.2432
 3162SOL    HW118350   0.779   9.720  -0.045  0.3159  0.7362  0.0420
 3162SOL    HW218351   0.787   9.722   0.119 -0.7628  0.6309  0.0973
 3163SOL     OW18352   5.171   9.079   1.528 -0.4991  0.1230  0.3080
 3163SOL    HW118353   5.096   9.092   1.592 -0.9705 -1.9353  0.2092
 3163SOL    HW218354   5.249   9.135   1.557 -2.2942  2.9018 -0.0498
 3164SOL     OW18355   7.205   8.843   2.974 -0.2416  0.1530  0.2921
 3164SOL    HW118356   7.224   8.866   2.879 -0.3866 -0.9913 -0.0237
 3164SOL    HW218357   7.183   8.926   3.025  0.9520  0.9104 -0.4093
 3165SOL     OW18358   4.198   4.191   3.700  0.1592 -0.3105 -0.2860
 3165SOL    HW118359   4.203   4.254   3.623  1.5298 -0.1839 -0.1145
 3165SOL    HW218360   4.110   4.143   3.699 -0.5511  0.9890 -0.8895
 3166SOL     OW18361   3.136   1.879   1.198  0.0660  0.8654  0.4129
 3166SOL    HW118362   3.205   1.928   1.251  1.8128  1.7865 -2.6001
 3166SOL    HW218363   3.140   1.781   1.219  0.4709  1.2584  2.2123
 3167SOL     OW18364   1.750   1.537   2.293 -0.1546 -0.2934  0.5485
 3167SOL    HW118365   1.782   1.594   2.217 -0.2750 -2.5546 -1.2354
 3167SOL    HW218366   1.800   1.562   2.377  1.9003  0.4044 -0.8414
 3168SOL     OW18367   9.011   2.605   3.547  0.1366  0.1013 -0.2910
 3168SOL    HW118368   9.016   2.633   3.451 -0.0136  2.3993  0.3369
 3168SOL    HW218369   9.103   2.601   3.585  0.2120 -1.0219 -0.5810
 3169SOL     OW18370   6.435   0.885   4.076  0.4387 -0.6909  0.0911
 3169SOL    HW118371   6.339   0.864   4.059  0.2565 -0.2991  0.6052
 3169SOL    HW218372   6.457   0.863   4.171 -0.4086  3.5982  1.4045
 3170SOL     OW18373   1.692   9.765   3.671 -0.3801 -0.0819  0.2356
 3170SOL    HW118374   1.739   9.683   3.703  1.1079  1.3124  1.7520
 3170SOL    HW218375   1.603   9.771   3.717 -0.0554 -0.3245  0.9152
 3171SOL     OW18376   8.489   1.845   2.070 -0.3639 -0.4381 -0.4589
 3171SOL    HW118377   8.462   1.838   1.973  1.7898  1.0832 -1.2102
 3171SOL    HW218378   8.559   1.915   2.079  0.6838 -1.7610  1.9742
 3172SOL     OW18379   3.521   6.188   1.684  0.2594 -0.2781  0.0113
 3172SOL    HW118380   3.434   6.143   1.704  0.5475 -1.1880 -0.7626
 3172SOL    HW218381   3.578   6.190   1.766 -0.3354 -0.0116  0.4220
 3173SOL     OW18382   2.783   9.116   3.426  0.6295  0.0594 -0.0399
 3173SOL    HW118383   2.777   9.198   3.483  0.9543 -0.2616  0.4656
 3173SOL    HW218384   2.693   9.072   3.423  0.8461 -0.4990  1.1096
 3175SOL     OW18385   3.253   7.833   3.327  0.1837 -0.2040  0.0648
 3175SOL    HW118386   3.270   7.804   3.421  0.4462  3.1908  1.1553
 3175SOL    HW218387   3.158   7.816   3.303  0.2818 -1.6770  0.7156
 3176SOL     OW18388   2.146   7.106   1.246  0.6509 -0.0422 -0.3881
 3176SOL    HW118389   2.195   7.159   1.177  2.2335 -1.5382 -0.4386
 3176SOL    HW218390   2.186   7.122   1.336 -0.0485  0.2558 -0.1215
 3177SOL     OW18391   2.751   9.956   1.203 -0.3247  0.2486  0.1880
 3177SOL    HW118392   2.674   9.932   1.262 -2.2780 -0.8365 -2.7380
 3177SOL    HW218393   2.759   9.889   1.129  1.9557  1.6893 -0.9310
 3178SOL     OW18394   1.942   8.148   2.802 -0.2993 -0.4755 -0.3421
 3178SOL    HW118395   1.932   8.157   2.901 -0.1869 -2.9605 -0.0572
 3178SOL    HW218396   1.869   8.091   2.766 -1.1030  1.5038 -1.9189
 3179SOL     OW18397   3.219   4.840   2.888  0.1245  0.2312  0.7268
 3179SOL    HW118398   3.278   4.773   2.933 -1.0371 -1.0461  0.3755
 3179SOL    HW218399   3.254   4.858   2.796  1.2417  1.1793  1.3304
 3180SOL     OW18400   9.380   2.863   0.204  0.3028 -0.1693 -0.2405
 3180SOL    HW118401   9.461   2.804   0.203 -0.0791 -0.7040 -1.5850
 3180SOL    HW218402   9.408   2.957   0.220  1.0958 -0.4845  0.2631
 3181SOL     OW18403   0.963   7.320   3.571 -0.0710 -0.0019  0.5263
 3181SOL    HW118404   0.952   7.262   3.652  0.9194 -0.0962  0.6043
 3181SOL    HW218405   1.035   7.282   3.513 -0.8187  0.0393 -0.4283
 3182SOL     OW18406   2.453   3.032   1.511 -0.1259 -0.1682 -0.2037
 3182SOL    HW118407   2.466   3.011   1.414 -0.9925  2.0193 -0.8201
 3182SOL    HW218408   2.374   2.980   1.546 -0.9025  0.3736 -1.1342
 3183SOL     OW18409   0.622   2.419   1.595  0.2366  0.3693  0.2601
 3183SOL    HW118410   0.709   2.465   1.577 -0.4090  1.2801 -0.5819
 3183SOL    HW218411   0.562   2.430   1.516 -1.0104  0.5862  1.2280
 3185SOL     OW18412   4.143   2.550   4.081  0.0245  0.3432  0.1990
 3185SOL    HW118413   4.148   2.535   4.180  0.9261 -1.3782 -0.0862
 3185SOL    HW218414   4.077   2.487   4.041  0.9450 -0.1652 -0.5233
 3186SOL     OW18415   5.252   7.298   2.147  0.4919 -0.2232 -0.3808
 3186SOL    HW118416   5.349   7.275   2.148  0.5024 -0.1833 -0.6883
 3186SOL    HW218417   5.198   7.217   2.124  0.1617 -1.3369  3.8306
 3187SOL     OW18418   4.486   7.442   2.252 -0.7169  0.2891 -0.6153
 3187SOL    HW118419   4.477   7.464   2.349  0.1951  0.3157 -0.5252
 3187SOL    HW218420   4.505   7.526   2.201 -0.7810  0.2171 -0.7552
 3188SOL     OW18421   2.020   3.421   3.811 -0.5803 -0.5118  0.0192
 3188SOL    HW118422   1.963   3.458   3.737 -0.4857  1.8480  1.0909
 3188SOL    HW218423   1.961   3.393   3.887 -0.4617  0.1550  0.3627
 3189SOL     OW18424   2.115   6.869   0.379 -0.0616 -0.0700  0.1944
 3189SOL    HW118425   2.148   6.962   0.366  2.0837 -0.9326 -0.8133
 3189SOL    HW218426   2.033   6.855   0.323 -0.0670  1.0463 -0.0900
 3191SOL     OW18427   0.781   7.893   1.190 -0.0819  0.5762 -0.3502
 3191SOL    HW118428   0.768   7.979   1.240  1.0702  0.0663  0.8526
 3191SOL    HW218429   0.840   7.833   1.243 -1.4483 -1.2437 -0.8628
 3192SOL     OW18430   3.674   9.534   4.228  0.1923  0.2073  0.5095
 3192SOL    HW118431   3.613   9.613   4.238  1.2640  0.8843  1.9472
 3192SOL    HW218432   3.660   9.492   4.138 -3.0315 -0.2079  1.1087
 3193SOL     OW18433   1.672   2.710   0.409  0.5346  0.1723  0.0314
 3193SOL    HW118434   1.668   2.701   0.509 -2.7110  1.6251  0.1035
 3193SOL    HW218435   1.600   2.773   0.379  0.2530 -1.6893 -3.3994
 3194SOL     OW18436   1.947   0.628   1.650 -0.2053 -0.0896 -0.2451
 3194SOL    HW118437   1.997   0.713   1.635 -0.6716  0.6584  2.1757
 3194SOL    HW218438   2.012   0.552   1.653  0.3796  0.3796 -0.9312
 3195SOL     OW18439   1.116   9.280   3.297  0.0401 -0.2250  0.0869
 3195SOL    HW118440   1.048   9.321   3.358 -0.2802 -1.4450  0.5762
 3195SOL    HW218441   1.164   9.352   3.246 -1.0628  0.6900  0.3257
 3197SOL     OW18442   5.937   7.509   1.787  0.2299 -0.1312  0.3058
 3197SOL    HW118443   5.884   7.424   1.787  1.1797 -0.7340  1.0624
 3197SOL    HW218444   5.933   7.551   1.696 -2.3201  0.3409  0.5802
 3198SOL     OW18445   0.680   5.716   1.470  0.3771  0.5457 -0.6334
 3198SOL    HW118446   0.756   5.656   1.445 -0.7663 -1.0024 -0.4426
 3198SOL    HW218447   0.712   5.783   1.538  2.0848  1.2649 -2.0960
 3199SOL     OW18448   2.725   3.608   3.143  0.5329 -0.4359  0.1902
 3199SOL    HW118449   2.709   3.629   3.239  2.2064 -3.4747  1.1969
 3199SOL    HW218450   2.642   3.568   3.103 -0.2209  1.0009  0.2995
 3200SOL     OW18451   8.825   8.449   0.541  0.5557  0.2079 -0.0983
 3200SOL    HW118452   8.758   8.459   0.615  0.6339 -2.4309  0.3615
 3200SOL    HW218453   8.908   8.500   0.565  0.3245 -0.0522  1.2968
 3202SOL     OW18454   0.754   6.236   1.908  0.0871  0.2640 -0.3321
 3202SOL    HW118455   0.834   6.229   1.849  0.0186  1.4941 -0.5887
 3202SOL    HW218456   0.687   6.298   1.867 -0.2423  0.6148  0.7084
 3203SOL     OW18457   1.360   5.745   2.645 -0.3271  0.1274  0.1668
 3203SOL    HW118458   1.355   5.646   2.656  2.5550 -0.1560 -0.8113
 3203SOL    HW218459   1.333   5.770   2.552 -0.7391  0.2513  0.3162
 3204SOL     OW18460   6.952   0.474   1.103 -0.4878  0.2308 -0.1465
 3204SOL    HW118461   6.997   0.467   1.014 -1.2629 -0.4130 -0.5006
 3204SOL    HW218462   6.881   0.404   1.109  1.2253 -1.4190  1.9512
 3205SOL     OW18463   2.220   4.661   1.493 -0.2776 -0.2574 -0.6649
 3205SOL    HW118464   2.158   4.738   1.475 -1.0216 -1.2495 -2.4592
 3205SOL    HW218465   2.177   4.576   1.463  1.0365 -1.2348  0.1751
 3206SOL     OW18466   9.120   0.701   4.149 -0.3740  0.3575  0.4558
 3206SOL    HW118467   9.053   0.704   4.224  0.9026 -0.9957  1.6827
 3206SOL    HW218468   9.207   0.668   4.184  0.0317 -1.0415 -1.7980
 3207SOL     OW18469   2.649   9.088   1.458  0.2368 -0.2403  0.1442
 3207SOL    HW118470   2.584   9.083   1.383 -0.9661  2.2362  0.9908
 3207SOL    HW218471   2.602   9.074   1.545  1.0451  0.2235  0.6695
 3208SOL     OW18472   2.680   5.587   2.827 -0.0232  0.3252  0.0712
 3208SOL    HW118473   2.716   5.558   2.916  0.5947  2.1123  0.4197
 3208SOL    HW218474   2.582   5.564   2.822  0.1738 -0.7106  0.7973
 3209SOL     OW18475   3.597   1.697   2.354 -0.5181 -0.3500  0.2423
 3209SOL    HW118476   3.689   1.659   2.344 -1.0702 -1.4287 -0.8327
 3209SOL    HW218477   3.588   1.738   2.445  0.9160 -0.5102  0.4749
 3210SOL     OW18478   0.716   7.427   2.738  0.4423  0.1018  0.1055
 3210SOL    HW118479   0.811   7.419   2.770  0.0754 -0.4067  1.0850
 3210SOL    HW218480   0.654   7.420   2.816 -0.3657  1.5310 -0.4020
 3211SOL     OW18481   2.909   1.003   3.966 -0.1277  0.2919 -1.0245
 3211SOL    HW118482   2.812   1.025   3.953 -0.0695  1.8382  0.8186
 3211SOL    HW218483   2.919   0.934   4.038  0.1955  1.2670 -0.1149
 3212SOL     OW18484   8.368   9.677   0.413  0.0463 -0.4881  0.6775
 3212SOL    HW118485   8.295   9.634   0.359 -0.0083  1.2300 -0.6753
 3212SOL    HW218486   8.345   9.672   0.510 -1.4868 -0.7021  0.3138
 3213SOL     OW18487   8.879   7.765   4.005 -0.6958  0.0733 -0.2819
 3213SOL    HW118488   8.875   7.705   3.926  0.6086 -0.5326  0.0911
 3213SOL    HW218489   8.790   7.806   4.021 -1.2442 -0.6802 -1.3858
 3216SOL     OW18490   2.193   8.543   1.289 -0.3591  0.2369 -0.3573
 3216SOL    HW118491   2.278   8.517   1.336 -0.5804  0.5559  0.2272
 3216SOL    HW218492   2.137   8.598   1.351 -0.0793  1.7640 -1.4288
 3217SOL     OW18493   8.875   7.945   1.614  0.0248 -0.0595  0.0025
 3217SOL    HW118494   8.929   7.940   1.530  1.0859 -1.3886  0.7543
 3217SOL    HW218495   8.932   7.976   1.690 -0.4241 -0.8803  0.6793
 3218SOL     OW18496   4.569   8.119   2.860 -0.0378 -0.1700  0.0633
 3218SOL    HW118497   4.593   8.023   2.878  0.2922 -0.0422  0.3074
 3218SOL    HW218498   4.627   8.179   2.915 -0.3033  0.1685 -0.0241
 3219SOL     OW18499   2.618   1.980   2.202 -0.1721 -0.0164  0.2762
 3219SOL    HW118500   2.605   1.882   2.190 -0.2322 -0.1515  1.4281
 3219SOL    HW218501   2.539   2.020   2.248  0.3726  0.3692  0.8908
 3220SOL     OW18502   0.898   4.138   0.968  0.0765 -1.1109  0.0335
 3220SOL    HW118503   0.817   4.185   0.930  0.4276 -0.4068  0.1459
 3220SOL    HW218504   0.907   4.162   1.064  1.3728  0.1451 -0.3850
 3221SOL     OW18505   7.489   1.385   2.723  0.0606 -0.2604  0.6579
 3221SOL    HW118506   7.513   1.290   2.705 -1.3473 -1.2250  3.5240
 3221SOL    HW218507   7.409   1.411   2.670  0.9776 -0.3668 -0.8046
 3222SOL     OW18508   9.408   2.921   2.323  0.0742 -1.1404 -0.6064
 3222SOL    HW118509   9.352   2.852   2.369 -1.6863  0.8552  0.3779
 3222SOL    HW218510   9.430   2.994   2.388  0.4952  0.0176 -2.0325
 3223SOL     OW18511   2.467   2.097   4.164  0.3082 -0.1992 -0.4260
 3223SOL    HW118512   2.548   2.076   4.220  0.7477 -0.5733 -1.1859
 3223SOL    HW218513   2.392   2.036   4.190  0.2315  0.2389  0.3736
 3224SOL     OW18514   0.698   8.180   0.733  0.8522  0.0084  0.4947
 3224SOL    HW118515   0.701   8.107   0.801 -2.3164 -0.8344 -0.1969
 3224SOL    HW218516   0.605   8.215   0.726  1.4009  1.0157 -2.4092
 3225SOL     OW18517   3.930   9.701   3.331  0.4941  0.0007  0.2931
 3225SOL    HW118518   3.974   9.729   3.245 -0.1967 -1.7832 -0.6824
 3225SOL    HW218519   3.987   9.726   3.408  1.7649  0.4399 -0.7753
 3226SOL     OW18520   8.844   7.362   2.992 -0.2436 -0.3980 -0.4062
 3226SOL    HW118521   8.851   7.343   3.090  0.9108  0.5303 -0.3017
 3226SOL    HW218522   8.753   7.398   2.972  0.0981  1.0932  0.6263
 3228SOL     OW18523   8.827   2.989   0.696  0.9446 -0.4716 -0.0636
 3228SOL    HW118524   8.793   3.034   0.778  2.3873 -1.3494  1.0450
 3228SOL    HW218525   8.854   3.059   0.629 -1.3390  0.2294 -0.2739
 3229SOL     OW18526   8.496   6.792   0.034  0.1716 -0.0245 -0.4867
 3229SOL    HW118527   8.419   6.855   0.034  0.2015  0.0433  1.6081
 3229SOL    HW218528   8.573   6.832  -0.016 -0.4047  0.8347 -0.6879
 3230SOL     OW18529   2.399   5.367   0.211  0.7511 -0.5183  0.1840
 3230SOL    HW118530   2.456   5.382   0.293 -0.0857 -0.3065  0.7295
 3230SOL    HW218531   2.303   5.361   0.238  0.2949  1.2832 -0.9735
 3231SOL     OW18532   4.983   3.400   0.995 -0.3082  0.3731  0.8270
 3231SOL    HW118533   4.914   3.392   0.923 -0.0570 -2.4316  0.8405
 3231SOL    HW218534   5.073   3.415   0.953 -0.5448  1.4921  0.7008
 3233SOL     OW18535   4.596   2.884   1.013  0.0949 -0.1759  0.3855
 3233SOL    HW118536   4.625   2.856   0.922  1.5533  2.4630  0.0005
 3233SOL    HW218537   4.676   2.903   1.069 -0.8176  1.7812  1.0679
 3235SOL     OW18538   6.636   8.968   4.098  0.1246  0.5527 -0.0543
 3235SOL    HW118539   6.615   9.064   4.120 -1.2238 -0.3917  3.0500
 3235SOL    HW218540   6.717   8.940   4.149 -0.5641 -0.4679  0.4957
 3236SOL     OW18541   5.039   3.063   3.177 -0.1317  0.1595 -0.0092
 3236SOL    HW118542   5.093   3.125   3.235  0.6724  0.5489 -1.1447
 3236SOL    HW218543   5.025   3.105   3.087  1.3632 -1.7384 -1.1701
 3237SOL     OW18544   5.148   9.205   3.577 -0.4101  0.5030  0.2243
 3237SOL    HW118545   5.198   9.133   3.625 -2.5336 -0.7358  0.6076
 3237SOL    HW218546   5.155   9.290   3.631  0.5647  0.1452  0.6880
 3238SOL     OW18547   1.185   6.457   1.052 -0.6942  0.2491 -0.4867
 3238SOL    HW118548   1.262   6.438   0.991 -0.3675  1.4712 -0.4679
 3238SOL    HW218549   1.114   6.506   1.002 -0.2999  1.5233  0.1802
 3240SOL     OW18550   9.193   3.313   1.875 -0.3237  0.1033 -0.7237
 3240SOL    HW118551   9.104   3.354   1.894 -0.0765 -0.3824  1.5992
 3240SOL    HW218552   9.222   3.258   1.953  2.2866  0.7139 -1.2136
 3241SOL     OW18553   3.014   6.110   0.403  0.2024 -1.3066  0.0787
 3241SOL    HW118554   3.104   6.094   0.443  0.9329 -0.9605 -1.4004
 3241SOL    HW218555   2.965   6.023   0.395  1.6945 -1.9687 -2.1297
 3242SOL     OW18556   1.006   3.650   1.918  0.2880  0.1300 -0.7231
 3242SOL    HW118557   0.979   3.719   1.986 -0.0880 -0.8110  0.0997
 3242SOL    HW218558   1.056   3.576   1.964 -1.6057 -1.4480 -1.1565
 3243SOL     OW18559   7.394   9.456   0.759  0.4685 -0.6575 -0.1944
 3243SOL    HW118560   7.362   9.547   0.786 -2.2163 -1.4772 -0.5171
 3243SOL    HW218561   7.479   9.435   0.808  1.1231  1.9998 -0.1049
 3244SOL     OW18562   1.703   8.018   3.702 -0.2477 -0.2854  0.2366
 3244SOL    HW118563   1.725   7.953   3.629 -3.3009 -0.6233 -0.4097
 3244SOL    HW218564   1.606   8.038   3.701  0.1160  1.7886  2.5476
 3245SOL     OW18565   2.807   9.504   0.283 -0.1071 -0.1190 -0.0904
 3245SOL    HW118566   2.903   9.492   0.307 -0.2471  0.2864  0.6709
 3245SOL    HW218567   2.753   9.428   0.318 -0.2358  0.2244  0.4668
 3246SOL     OW18568   2.306   3.851   1.007 -0.6384  0.3847 -0.7259
 3246SOL    HW118569   2.377   3.907   0.965  0.6469 -2.3705 -2.3441
 3246SOL    HW218570   2.233   3.834   0.940 -1.5763  1.0380  0.1112
 3247SOL     OW18571   2.490   4.696   1.420  1.3395 -0.6025  0.1349
 3247SOL    HW118572   2.558   4.622   1.424  3.0310  0.9384  0.6574
 3247SOL    HW218573   2.402   4.662   1.452  2.0136 -2.5001  0.0202
 3248SOL     OW18574   1.021   4.982   4.005 -0.1293  0.4353  0.0558
 3248SOL    HW118575   1.080   5.060   4.026  0.9065  0.2139 -1.9461
 3248SOL    HW218576   1.007   4.976   3.906 -1.9765 -0.6428  0.3631
 3249SOL     OW18577   4.547   9.964   4.206 -0.3175  0.1201 -0.0751
 3249SOL    HW118578   4.571  10.006   4.294  1.4423  1.2987 -1.0884
 3249SOL    HW218579   4.455   9.994   4.179 -1.0907 -0.6723  1.5927
 3250SOL     OW18580   7.759   5.781   2.588  0.2071 -0.9778  0.5568
 3250SOL    HW118581   7.691   5.711   2.567 -1.2483  0.6597 -0.3517
 3250SOL    HW218582   7.749   5.857   2.524  3.6848 -1.1997 -0.3475
 3251SOL     OW18583   7.512   4.272   0.018  0.3517  0.3033 -0.3194
 3251SOL    HW118584   7.439   4.270  -0.051  0.7003 -1.4766 -0.6495
 3251SOL    HW218585   7.489   4.341   0.087 -1.2456  0.3561 -0.8626
 3252SOL     OW18586   3.348   2.344   3.900 -0.2923 -0.1323  0.5444
 3252SOL    HW118587   3.359   2.340   3.800 -0.9415  0.4248  0.4446
 3252SOL    HW218588   3.354   2.252   3.938  0.4297 -0.2984  0.0447
 3253SOL     OW18589   6.090   0.896   3.143 -0.3572 -0.1813 -0.0331
 3253SOL    HW118590   6.096   0.798   3.162  0.5980 -0.7132 -2.7828
 3253SOL    HW218591   5.994   0.925   3.148 -0.7247 -1.3911  0.1742
 3255SOL     OW18592   0.998   9.556   2.796 -0.1841  0.3652 -0.2474
 3255SOL    HW118593   0.996   9.458   2.779  0.9438  0.1969  0.4910
 3255SOL    HW218594   0.943   9.578   2.876  0.4086  0.1917  0.2114
 3257SOL     OW18595   0.583   1.549   1.706  0.4573 -0.2524 -0.2323
 3257SOL    HW118596   0.634   1.600   1.775  0.2139 -0.3653  0.0342
 3257SOL    HW218597   0.521   1.484   1.752  1.0152 -1.0265 -0.5725
 3258SOL     OW18598   3.221   0.322   0.830 -0.0141  0.2843  0.1452
 3258SOL    HW118599   3.208   0.405   0.776  0.5355  0.1152 -0.2473
 3258SOL    HW218600   3.296   0.269   0.792  0.5025  0.2517  1.1793
 3259SOL     OW18601   4.884   8.475   4.214 -0.3168 -0.4589 -0.2099
 3259SOL    HW118602   4.940   8.509   4.138 -1.6821  0.8896 -0.6250
 3259SOL    HW218603   4.933   8.489   4.300 -0.0841  0.8617 -0.5563
 3260SOL     OW18604   3.693   2.397   0.477  0.0335 -0.1589  0.3322
 3260SOL    HW118605   3.728   2.480   0.520  0.0307  0.6186 -1.1317
 3260SOL    HW218606   3.732   2.317   0.522  0.9228  0.6485  1.0170
 3262SOL     OW18607   7.964   6.917   3.859 -0.1534  0.1380 -0.2248
 3262SOL    HW118608   8.040   6.959   3.809  1.3770 -0.5221  1.4886
 3262SOL    HW218609   7.905   6.868   3.795  1.3677 -0.0838 -1.4833
 3264SOL     OW18610   9.388   9.954   1.335 -0.0788  0.0492 -0.0110
 3264SOL    HW118611   9.477   9.997   1.320 -0.2891  0.1302 -1.1172
 3264SOL    HW218612   9.337  10.005   1.404  0.3635  0.5519 -0.0531
 3265SOL     OW18613   9.758   7.801   1.166 -0.7051  0.0934  0.1378
 3265SOL    HW118614   9.832   7.784   1.100 -0.2975 -0.8422  0.8329
 3265SOL    HW218615   9.742   7.900   1.173  2.5347  0.5510  2.1986
 3266SOL     OW18616   1.332   6.127   4.409  0.2882  0.3719 -0.1956
 3266SOL    HW118617   1.285   6.078   4.336 -0.7985 -1.0017  1.3958
 3266SOL    HW218618   1.272   6.198   4.446  0.9497  1.2741 -0.8244
 3267SOL     OW18619   2.926   0.005   3.027 -0.5019  0.5225 -0.3580
 3267SOL    HW118620   2.832  -0.003   2.994 -0.2613  0.3953 -1.0074
 3267SOL    HW218621   2.989   0.007   2.950  0.3386 -3.1125  0.1609
 3268SOL     OW18622   4.331   3.985   2.438 -0.3582 -0.3253 -0.1000
 3268SOL    HW118623   4.345   3.905   2.495  0.8020  0.1113  0.2360
 3268SOL    HW218624   4.235   3.988   2.408 -1.0478 -0.3911  2.0503
 3269SOL     OW18625   8.545   6.341   0.026 -0.0312  0.0558  0.2521
 3269SOL    HW118626   8.626   6.395   0.005  0.7864 -0.9323  0.8556
 3269SOL    HW218627   8.561   6.245   0.004 -0.6640 -0.3170  1.3331
 3270SOL     OW18628   6.943   0.596   3.627 -0.5658 -0.1799 -0.4498
 3270SOL    HW118629   7.025   0.594   3.684 -1.1446  2.8364  0.6246
 3270SOL    HW218630   6.965   0.634   3.537 -0.9069  1.5678  0.1741
 3271SOL     OW18631   2.676   4.293   1.700  0.9403 -0.8510 -0.7279
 3271SOL    HW118632   2.600   4.236   1.668  0.8979 -0.6236 -1.0348
 3271SOL    HW218633   2.740   4.237   1.751  0.5396 -1.0382 -0.4231
 3272SOL     OW18634   3.047   0.164   0.371  0.1114 -0.4063  0.2802
 3272SOL    HW118635   3.117   0.202   0.431 -0.5304  1.2106  0.0147
 3272SOL    HW218636   2.957   0.172   0.414 -0.6200  2.5228 -1.6357
 3273SOL     OW18637   2.179   9.613   3.535 -0.6309  0.1258 -0.8879
 3273SOL    HW118638   2.245   9.563   3.591  0.0706  0.8487 -1.0534
 3273SOL    HW218639   2.087   9.600   3.571  0.0076  2.0017  1.4828
 3274SOL     OW18640   3.013   6.146   2.752 -0.3839 -0.0772  0.5117
 3274SOL    HW118641   2.954   6.217   2.712  1.3023  2.2187  1.9844
 3274SOL    HW218642   2.966   6.058   2.748 -3.1871  1.3793  0.0281
 3275SOL     OW18643   0.740   0.621   2.445  0.0286  0.3460 -0.0184
 3275SOL    HW118644   0.823   0.571   2.422 -0.5734 -0.9261  0.5508
 3275SOL    HW218645   0.722   0.690   2.374  2.1244  1.3391  0.3912
 3277SOL     OW18646   3.746   1.155   0.609  0.3962 -0.3273 -0.0013
 3277SOL    HW118647   3.805   1.124   0.535  0.5947  0.5990 -0.2435
 3277SOL    HW218648   3.703   1.077   0.653 -0.5345 -0.8363 -1.7803
 3278SOL     OW18649   1.649   6.983   2.099  0.3917 -0.2563  0.4025
 3278SOL    HW118650   1.609   6.969   2.190  2.7504 -1.8203  1.2250
 3278SOL    HW218651   1.704   6.904   2.073 -1.3312 -0.4279 -3.0158
 3279SOL     OW18652   8.160   3.479   1.226  0.3437  0.5785 -0.6383
 3279SOL    HW118653   8.244   3.473   1.173 -0.1437 -1.8082 -1.1708
 3279SOL    HW218654   8.090   3.526   1.173  0.7409  0.8163 -0.9546
 3280SOL     OW18655   0.189   4.860   3.455 -0.4733 -0.1009  0.3409
 3280SOL    HW118656   0.235   4.837   3.369  0.8526 -0.3537  1.0941
 3280SOL    HW218657   0.157   4.954   3.451  1.3823  0.5623  0.3079
 3281SOL     OW18658   9.322   7.952   3.604 -0.3143  0.4245 -0.3186
 3281SOL    HW118659   9.253   7.880   3.616 -0.5107  0.4880 -1.0688
 3281SOL    HW218660   9.410   7.910   3.585 -0.2541  0.3623  0.0796
 3282SOL     OW18661   8.250   1.013   2.102 -0.1231  0.0911  0.7353
 3282SOL    HW118662   8.207   1.036   2.015  2.3424  1.4050 -0.1901
 3282SOL    HW218663   8.302   0.928   2.093  0.7170  0.6002  0.7059
 3283SOL     OW18664   1.951   2.675   0.042 -0.3398  0.6164  0.3606
 3283SOL    HW118665   1.896   2.609   0.092 -0.9240  1.5549  0.9716
 3283SOL    HW218666   1.999   2.734   0.107  0.0451  0.9056 -0.1803
 3284SOL     OW18667   4.610   2.901   1.895  0.3153  0.5349 -0.5578
 3284SOL    HW118668   4.697   2.852   1.889  1.5156  2.3085  1.4579
 3284SOL    HW218669   4.610   2.976   1.829  0.5908  0.9142 -0.1321
 3287SOL     OW18670   7.763   9.550   3.629  0.0256  0.4891  0.3251
 3287SOL    HW118671   7.795   9.643   3.610  0.6402  0.2403  0.1094
 3287SOL    HW218672   7.675   9.554   3.676  1.2382  1.2294  2.5982
 3289SOL     OW18673   0.790   6.611   0.978  0.4677  0.1192  0.3916
 3289SOL    HW118674   0.841   6.595   0.894 -2.0307  0.9517 -1.3366
 3289SOL    HW218675   0.800   6.532   1.038 -0.2530 -1.8919 -2.0296
 3290SOL     OW18676   3.013   8.953   3.424 -0.0815  0.2128  0.1597
 3290SOL    HW118677   2.998   8.868   3.373  0.5189  0.2411 -0.0659
 3290SOL    HW218678   2.931   9.010   3.416 -0.2075 -0.0223 -0.3098
 3292SOL     OW18679   2.046   4.118   1.096 -0.3257 -0.0223  0.8865
 3292SOL    HW118680   2.086   4.133   1.187 -0.5074 -0.1943  0.9970
 3292SOL    HW218681   2.000   4.029   1.094  0.9615 -0.6763  0.1562
 3293SOL     OW18682   0.091   3.777   0.551 -0.1796 -0.2120  0.3848
 3293SOL    HW118683   0.025   3.846   0.581  0.6396  0.5975  0.3593
 3293SOL    HW218684   0.160   3.820   0.493 -0.1749 -1.2388 -0.3820
 3294SOL     OW18685   2.512   7.567   3.550 -0.1696 -0.5793 -0.2095
 3294SOL    HW118686   2.421   7.527   3.560 -2.0021  3.3893 -0.0584
 3294SOL    HW218687   2.535   7.577   3.454  1.5108 -4.4157 -0.2880
 3295SOL     OW18688   9.821   9.385   2.169 -0.5104  0.4222  0.1226
 3295SOL    HW118689   9.789   9.371   2.075 -0.5936  0.2923  0.1690
 3295SOL    HW218690   9.846   9.481   2.182 -0.4309  0.4255 -0.0530
 3296SOL     OW18691   5.120   2.509   0.505 -0.2949  0.2494  0.5725
 3296SOL    HW118692   5.149   2.508   0.409 -1.8814 -0.4249  0.0805
 3296SOL    HW218693   5.124   2.602   0.541 -0.3078  0.6117 -0.3559
 3298SOL     OW18694   8.188   0.050   2.428 -0.1136  0.0221  0.0484
 3298SOL    HW118695   8.105   0.091   2.466 -0.8389 -0.4931 -0.9501
 3298SOL    HW218696   8.202   0.086   2.335  0.6999 -0.0076  0.1604
 3299SOL     OW18697   2.264   3.048   1.227 -0.1328 -0.0713  0.0657
 3299SOL    HW118698   2.176   3.068   1.184 -0.1910  0.0604  0.2467
 3299SOL    HW218699   2.280   2.949   1.223 -0.5827 -0.1715  0.5956
 3300SOL     OW18700   2.019   8.724   2.727  0.1509  0.1029  0.1340
 3300SOL    HW118701   1.958   8.646   2.725  0.6433 -0.3513  1.8720
 3300SOL    HW218702   2.004   8.777   2.811  0.4445  1.3638 -0.5832
 3301SOL     OW18703   2.860   0.725   3.336 -0.6619 -0.0544  0.3628
 3301SOL    HW118704   2.769   0.761   3.357  1.1013  4.0251  1.4342
 3301SOL    HW218705   2.911   0.712   3.421  1.0627  1.4267 -0.4084
 3302SOL     OW18706   5.599   1.073   1.136 -0.0780  0.1307 -0.3445
 3302SOL    HW118707   5.591   1.148   1.070 -0.4261  0.4693  0.0770
 3302SOL    HW218708   5.516   1.069   1.191  0.5756  0.4099  0.6706
 3303SOL     OW18709   5.557   0.793   2.173  0.8706 -0.2847  0.1182
 3303SOL    HW118710   5.639   0.814   2.119  0.8552  0.7388  0.4882
 3303SOL    HW218711   5.578   0.720   2.237  2.1893  1.5414  1.8274
 3306SOL     OW18712   1.038   0.215   0.874 -0.1280 -0.3925 -0.5873
 3306SOL    HW118713   0.966   0.146   0.880 -0.1723 -0.2204  0.8377
 3306SOL    HW218714   1.021   0.288   0.941  1.0233 -0.0283 -0.6859
 3307SOL     OW18715   7.981   3.563   0.580  0.6934  0.0767  0.0295
 3307SOL    HW118716   7.989   3.478   0.633  1.0728  0.1898  0.1602
 3307SOL    HW218717   7.967   3.639   0.643  1.5214  0.2611 -0.0054
 3308SOL     OW18718   1.717   9.369   0.475 -0.3348 -0.1091  0.3033
 3308SOL    HW118719   1.660   9.343   0.553 -0.4671  0.2922  0.3433
 3308SOL    HW218720   1.714   9.297   0.406 -1.4672  0.2201 -0.0050
 3310SOL     OW18721   8.325   6.369   0.520  0.4254 -0.5354  0.1472
 3310SOL    HW118722   8.288   6.295   0.577 -0.0317 -0.4951 -0.1009
 3310SOL    HW218723   8.314   6.456   0.568  1.0985 -0.6445  0.5037
 3313SOL     OW18724   9.726   7.309   0.589  0.4848 -0.0780  0.1156
 3313SOL    HW118725   9.726   7.359   0.676 -1.1925  0.0078  0.0751
 3313SOL    HW218726   9.678   7.222   0.600  0.3604 -0.1169 -0.6971
 3314SOL     OW18727   0.423   4.300   4.038 -0.3991  0.3678  0.0808
 3314SOL    HW118728   0.357   4.259   3.976 -0.9950  1.5184 -0.0460
 3314SOL    HW218729   0.516   4.277   4.007 -0.6986  0.5559 -0.9696
 3315SOL     OW18730   8.758   0.366   2.481 -0.2142  0.0143 -0.2319
 3315SOL    HW118731   8.735   0.283   2.531  1.4993  0.6472  1.7005
 3315SOL    HW218732   8.822   0.344   2.407  0.2244 -0.4043  0.2687
 3316SOL     OW18733   1.391   1.923   0.886  0.4993 -0.1634  0.3044
 3316SOL    HW118734   1.416   2.015   0.856  0.2926  0.0461  0.7770
 3316SOL    HW218735   1.407   1.914   0.984  1.6507 -1.0116  0.0506
 3317SOL     OW18736   8.817   2.704   2.426  0.0963  0.3442  0.2974
 3317SOL    HW118737   8.728   2.735   2.393 -0.3362 -0.4893  0.6661
 3317SOL    HW218738   8.877   2.685   2.348 -0.5257 -0.4686  0.0052
 3318SOL     OW18739   2.742   7.247   3.724 -0.0647  0.1429  0.5646
 3318SOL    HW118740   2.785   7.324   3.772 -0.4171 -0.2426  1.5059
 3318SOL    HW218741   2.741   7.266   3.626 -4.3322  3.4953  1.1043
 3320SOL     OW18742   8.490   2.120   1.554 -0.5904 -0.1220  0.0089
 3320SOL    HW118743   8.484   2.216   1.529 -3.3505 -0.6254 -1.3547
 3320SOL    HW218744   8.438   2.105   1.638  1.6851 -0.0525  1.4883
 3321SOL     OW18745   4.668   9.488   3.030  0.1757 -0.1721  0.2387
 3321SOL    HW118746   4.732   9.472   2.955 -1.1332 -1.7521 -0.5616
 3321SOL    HW218747   4.650   9.403   3.079 -1.2620  0.2432  0.4863
 3324SOL     OW18748   9.378   4.741   2.788  0.4380  0.0924  0.3453
 3324SOL    HW118749   9.459   4.690   2.817 -0.2214 -2.0432 -1.4164
 3324SOL    HW218750   9.297   4.686   2.807 -0.3197  0.7036 -1.1374
 3325SOL     OW18751   7.560   2.509   0.915 -0.4957  0.1747 -0.1006
 3325SOL    HW118752   7.647   2.509   0.865 -1.0461  2.6071 -1.1118
 3325SOL    HW218753   7.485   2.485   0.853 -1.0660  2.3007 -0.2684
 3326SOL     OW18754   7.054   7.636   3.743  0.3096 -0.0460 -0.8805
 3326SOL    HW118755   6.962   7.673   3.756  0.1507 -0.9524  0.8058
 3326SOL    HW218756   7.048   7.541   3.713  0.6507 -0.7180  1.0795
 3327SOL     OW18757   7.170   6.919   3.865  0.3234  0.1706 -0.4788
 3327SOL    HW118758   7.094   6.902   3.802 -0.2927 -0.9032  0.5274
 3327SOL    HW218759   7.253   6.938   3.813 -0.1374 -0.8776 -1.6144
 3328SOL     OW18760   2.249   6.326   0.756  0.4983 -0.4422 -0.1311
 3328SOL    HW118761   2.278   6.422   0.749 -0.7724 -0.0762 -0.4785
 3328SOL    HW218762   2.193   6.315   0.838  0.0190 -0.7279 -0.4965
 3329SOL     OW18763   9.795   9.607   4.427  0.1664 -0.3435  0.4846
 3329SOL    HW118764   9.701   9.596   4.461  0.6484 -2.1366  1.2842
 3329SOL    HW218765   9.850   9.530   4.457  1.5893  0.0482 -1.0763
 3330SOL     OW18766   7.041   9.347   2.127 -0.2408 -0.3482 -0.8515
 3330SOL    HW118767   7.058   9.385   2.036 -1.2962  0.8219 -0.5705
 3330SOL    HW218768   7.124   9.353   2.182  0.1558 -0.2620 -1.4524
 3331SOL     OW18769   8.847   8.052   4.357 -0.0852 -0.1690  0.4376
 3331SOL    HW118770   8.935   8.020   4.323 -0.2659  1.5809 -1.7558
 3331SOL    HW218771   8.784   7.974   4.364  0.9421 -1.0601 -0.1224
 3333SOL     OW18772   2.543   2.482   1.879  0.3305  0.2291  0.1442
 3333SOL    HW118773   2.487   2.497   1.798  1.1466  1.2123 -0.2429
 3333SOL    HW218774   2.589   2.393   1.872  0.5161  0.3790 -0.5337
 3334SOL     OW18775   5.993   9.062   2.574 -0.4695 -0.7348 -0.2166
 3334SOL    HW118776   5.920   9.045   2.641 -0.9882 -0.5324 -0.7235
 3334SOL    HW218777   5.985   8.996   2.500 -1.2972  0.4647 -1.2188
 3335SOL     OW18778   9.815   2.772   0.472  0.7583  0.1288 -0.5417
 3335SOL    HW118779   9.831   2.674   0.473  0.2999  0.0560 -0.2928
 3335SOL    HW218780   9.900   2.820   0.450  1.1027 -0.2964 -0.1351
 3336SOL     OW18781   2.859   4.790   2.258 -0.4154  0.6706 -0.6806
 3336SOL    HW118782   2.866   4.691   2.247  1.0609  0.7274 -0.3593
 3336SOL    HW218783   2.921   4.836   2.195  1.4941  1.2594  1.5474
 3337SOL     OW18784   4.718   7.796   3.777  0.2589 -0.3779  0.3051
 3337SOL    HW118785   4.756   7.841   3.858  0.2721 -0.7076  0.4836
 3337SOL    HW218786   4.678   7.865   3.716  0.0343 -0.1494  0.7059
 3339SOL     OW18787   0.350   3.428   1.458 -0.2808  0.2037  0.0590
 3339SOL    HW118788   0.405   3.435   1.374  1.0212  0.5536  0.9388
 3339SOL    HW218789   0.269   3.371   1.439  0.8242 -1.0570 -1.0042
 3340SOL     OW18790   6.242   8.742   2.386  0.3872 -0.3410 -0.3508
 3340SOL    HW118791   6.175   8.812   2.364 -0.5165 -0.9312  0.5080
 3340SOL    HW218792   6.279   8.704   2.301  1.7919  1.9979 -0.8464
 3341SOL     OW18793   0.556   1.810   3.499  0.6001 -0.5666  0.2507
 3341SOL    HW118794   0.560   1.710   3.506  0.9957 -0.5963 -0.3716
 3341SOL    HW218795   0.483   1.836   3.437  1.7935 -0.5418 -1.1732
 3342SOL     OW18796   5.194   9.361   4.324  0.0379 -1.0844  0.7575
 3342SOL    HW118797   5.232   9.409   4.403  0.8134  1.8147 -1.2994
 3342SOL    HW218798   5.095   9.354   4.334  0.0884 -0.4028  1.7954
 3343SOL     OW18799   1.209   0.662   1.963 -0.0851 -0.6991 -0.1257
 3343SOL    HW118800   1.272   0.624   1.895 -1.3253 -1.0926 -1.0748
 3343SOL    HW218801   1.246   0.748   1.998  1.3795 -1.3345 -0.0394
 3344SOL     OW18802   7.559   6.376   2.968 -0.1561  0.0466 -0.0461
 3344SOL    HW118803   7.518   6.447   2.911 -1.7261 -1.1076 -0.3855
 3344SOL    HW218804   7.576   6.294   2.912  0.7620 -0.1870  0.5538
 3346SOL     OW18805   0.494   5.798   2.416  0.6514  0.1942 -0.9040
 3346SOL    HW118806   0.575   5.844   2.452 -0.1274  0.0218  1.1511
 3346SOL    HW218807   0.457   5.849   2.339  0.9746  1.9109  0.0541
 3347SOL     OW18808   1.904   9.450   3.540 -0.3631  0.2723  0.1110
 3347SOL    HW118809   1.921   9.503   3.457 -0.8896  0.7015  0.2757
 3347SOL    HW218810   1.846   9.503   3.602 -0.2187 -0.1689  0.6240
 3348SOL     OW18811   5.374   6.600   3.250 -0.3225  0.1647  0.1510
 3348SOL    HW118812   5.314   6.581   3.171  2.4248  0.4825 -2.0843
 3348SOL    HW218813   5.408   6.694   3.244 -0.7447  0.4607  2.1957
 3350SOL     OW18814   1.808   9.575   1.571 -0.0873  0.4577 -0.2097
 3350SOL    HW118815   1.876   9.541   1.636  0.6663 -1.0824 -1.7556
 3350SOL    HW218816   1.841   9.659   1.529  1.9182 -1.3783 -2.5047
 3353SOL     OW18817   1.690   6.593   3.602  0.3066 -0.0550 -0.1393
 3353SOL    HW118818   1.773   6.539   3.614  0.9562  1.0628  0.4908
 3353SOL    HW218819   1.668   6.600   3.505  1.1795 -0.0122 -0.3347
 3357SOL     OW18820   0.995   6.478   0.102 -0.1403 -0.5708  0.0119
 3357SOL    HW118821   1.004   6.379   0.087 -2.2179 -0.5796 -1.3563
 3357SOL    HW218822   1.052   6.526   0.035  3.1232 -0.8363  2.4914
 3359SOL     OW18823   3.186   4.987   4.105 -0.2611  0.4201 -0.5096
 3359SOL    HW118824   3.154   4.904   4.058 -0.6660  0.2644  0.0423
 3359SOL    HW218825   3.191   5.062   4.039 -0.0183 -0.0119 -0.9845
 3360SOL     OW18826   1.403   0.409   2.587  0.8790  0.1308  0.6646
 3360SOL    HW118827   1.475   0.422   2.656  0.8040  0.9800  0.5879
 3360SOL    HW218828   1.384   0.496   2.542  1.7306 -0.6520 -1.2500
 3361SOL     OW18829   2.645   3.051   2.769 -0.1618  0.1597  0.5035
 3361SOL    HW118830   2.715   3.122   2.783  1.1309 -0.9180 -0.3962
 3361SOL    HW218831   2.626   3.044   2.671 -0.9119 -0.1553  0.6753
 3363SOL     OW18832   9.240   9.282   2.435 -0.6611 -0.1192  0.0452
 3363SOL    HW118833   9.274   9.228   2.513  1.1797  0.9136 -0.0147
 3363SOL    HW218834   9.230   9.223   2.355  2.3237 -0.2166 -0.3049
 3364SOL     OW18835   2.057   7.207   3.431  0.6487 -0.0824 -0.3133
 3364SOL    HW118836   1.968   7.206   3.475  0.1624 -0.8780 -1.2989
 3364SOL    HW218837   2.120   7.148   3.482  0.5024  0.1608  0.1495
 3365SOL     OW18838   9.070   2.309   4.381 -0.4721 -0.0424  0.2558
 3365SOL    HW118839   9.058   2.244   4.305  0.2961 -1.2802  1.1715
 3365SOL    HW218840   9.044   2.401   4.351 -3.1564 -1.0448 -0.5831
 3367SOL     OW18841   1.956   4.909   2.434 -0.4352  0.2333  0.2714
 3367SOL    HW118842   2.032   4.944   2.378 -0.0803 -2.2313 -0.8540
 3367SOL    HW218843   1.916   4.829   2.390 -2.5743  0.4356  1.7486
 3368SOL     OW18844   4.991   1.012   2.774 -0.1390  0.6439  0.4892
 3368SOL    HW118845   4.895   1.035   2.789 -0.4019 -0.3324  0.3561
 3368SOL    HW218846   5.035   1.084   2.722 -1.3739  0.0516 -1.4287
 3369SOL     OW18847   1.001   3.954   1.281  0.1828  0.1492 -0.1569
 3369SOL    HW118848   1.018   4.044   1.322 -1.1175  1.0553 -1.5453
 3369SOL    HW218849   1.083   3.924   1.232  0.0988  1.3338 -1.0480
 3370SOL     OW18850   9.531   9.140   1.755 -0.1268 -0.0068  0.0561
 3370SOL    HW118851   9.542   9.052   1.707 -1.5375  0.8099 -1.8494
 3370SOL    HW218852   9.584   9.210   1.707 -1.3756  0.7788 -0.1887
 3371SOL     OW18853   0.325   3.904   4.135 -0.1385  0.3209 -0.6905
 3371SOL    HW118854   0.306   3.978   4.069 -1.6696 -0.4701 -1.1620
 3371SOL    HW218855   0.264   3.828   4.117  0.3130 -0.4171  0.8636
 3372SOL     OW18856   9.306   8.698   2.926 -0.4012 -0.6022  0.1505
 3372SOL    HW118857   9.376   8.768   2.933 -1.7090  0.6234  1.1155
 3372SOL    HW218858   9.225   8.737   2.883 -0.3358 -2.1394 -1.4111
 3373SOL     OW18859   1.795   0.101   4.311  0.2115  0.6958  0.1830
 3373SOL    HW118860   1.858   0.055   4.374 -0.3832 -0.5022 -0.0913
 3373SOL    HW218861   1.804   0.060   4.220 -0.4345  1.0245 -0.0269
 3374SOL     OW18862   9.862   7.327   1.246  0.2803  0.1287 -0.4415
 3374SOL    HW118863   9.863   7.245   1.188 -1.4863 -0.8519  0.8311
 3374SOL    HW218864   9.941   7.326   1.306 -0.8994 -1.9078  1.1656
 3375SOL     OW18865   4.749   0.828   1.820 -0.3535 -0.2070 -0.0481
 3375SOL    HW118866   4.817   0.756   1.810  0.0438  0.0800  0.6011
 3375SOL    HW218867   4.779   0.894   1.889 -1.5143 -0.3382  0.5891
 3378SOL     OW18868   9.981   1.396   0.457  0.2695  0.1065  0.9348
 3378SOL    HW118869   9.951   1.354   0.542 -0.3584  0.4997  0.9093
 3378SOL    HW218870   9.901   1.421   0.402  0.6657 -1.9551 -0.6542
 3379SOL     OW18871   9.528   8.122   0.191 -0.0593  0.1571  0.3326
 3379SOL    HW118872   9.609   8.063   0.201 -1.2604 -1.7947 -0.9917
 3379SOL    HW218873   9.461   8.098   0.260 -0.3333  0.3511  0.1358
 3380SOL     OW18874   2.889   1.713   4.034  0.3056  0.2356  0.3505
 3380SOL    HW118875   2.979   1.669   4.033  0.3268  0.2839 -0.1895
 3380SOL    HW218876   2.883   1.777   3.958  0.2118  1.0539  1.0430
 3381SOL     OW18877   2.361   2.846   1.013  0.1916  0.0880 -0.0149
 3381SOL    HW118878   2.397   2.776   1.074 -0.6217  1.2883  1.9027
 3381SOL    HW218879   2.263   2.831   0.998  0.1829  0.3589 -0.2443
 3382SOL     OW18880   5.077   9.769   1.253  0.4161 -0.6461 -0.0336
 3382SOL    HW118881   5.046   9.686   1.299  1.3714  0.1844  2.1834
 3382SOL    HW218882   5.048   9.849   1.305  1.0914  0.3510 -1.1535
 3383SOL     OW18883   2.879   2.802   3.240 -0.2127 -0.1216  0.4444
 3383SOL    HW118884   2.814   2.803   3.164  1.2803 -2.3566 -0.9077
 3383SOL    HW218885   2.845   2.743   3.313  0.3952 -1.5154 -0.3814
 3385SOL     OW18886   2.124   1.878   1.129  0.8767  0.2079 -0.1740
 3385SOL    HW118887   2.124   1.806   1.199  1.0896 -0.7307 -1.1251
 3385SOL    HW218888   2.082   1.842   1.045  0.8770  1.2363 -0.6200
 3387SOL     OW18889   3.566   6.040   3.383 -0.4263 -0.1894 -0.0268
 3387SOL    HW118890   3.542   6.115   3.321 -1.1883 -0.1889  0.2652
 3387SOL    HW218891   3.632   6.073   3.451 -1.2406  0.3847  0.4849
 3389SOL     OW18892   9.274   9.074   2.247 -0.0231 -0.0177  0.1528
 3389SOL    HW118893   9.254   9.027   2.333  0.2335 -0.3749  0.0152
 3389SOL    HW218894   9.273   9.009   2.171  2.3887 -0.1783  0.2244
 3390SOL     OW18895   0.663   1.644   3.778 -0.5144 -0.2070  0.0237
 3390SOL    HW118896   0.746   1.687   3.742 -1.6139  1.1685 -0.9391
 3390SOL    HW218897   0.606   1.612   3.702 -0.4089 -2.0499  0.7030
 3391SOL     OW18898   4.639   1.524   3.698 -0.9865 -0.0081  0.0135
 3391SOL    HW118899   4.573   1.548   3.768 -0.8177 -2.8743  1.1874
 3391SOL    HW218900   4.731   1.551   3.728 -1.2302  1.2138 -0.3077
 3392SOL     OW18901   6.656   9.020   2.143 -0.1988  0.7823 -0.3206
 3392SOL    HW118902   6.684   8.924   2.138  0.4254  0.9584 -0.3678
 3392SOL    HW218903   6.722   9.076   2.091  1.0199  1.5675  2.0026
 3393SOL     OW18904   1.427   9.238   2.468  0.2480  0.3803 -0.1803
 3393SOL    HW118905   1.481   9.316   2.501 -0.4423  0.7111  0.1892
 3393SOL    HW218906   1.451   9.157   2.521  1.5338  0.1597 -1.0864
 3394SOL     OW18907   2.512   3.379   2.426  0.2479  0.5024  0.1479
 3394SOL    HW118908   2.463   3.393   2.340 -0.8796  0.8040  0.8316
 3394SOL    HW218909   2.595   3.436   2.428 -0.4798  1.5731 -0.1292
 3396SOL     OW18910   9.663   3.767   1.609 -0.1135  0.1058  0.2583
 3396SOL    HW118911   9.646   3.668   1.609 -0.0392  0.0825  1.8543
 3396SOL    HW218912   9.722   3.791   1.531  1.3541 -1.3763  0.8851
 3397SOL     OW18913   8.356   6.452   1.227 -0.0724  0.1688 -0.3882
 3397SOL    HW118914   8.355   6.353   1.242 -2.6691  0.1491 -0.4519
 3397SOL    HW218915   8.319   6.498   1.308 -1.3117  0.9090 -1.3602
 3398SOL     OW18916   8.709   3.732   1.479  0.4783 -0.0907  0.3883
 3398SOL    HW118917   8.783   3.728   1.545  0.7349  0.3934  0.1338
 3398SOL    HW218918   8.639   3.797   1.510 -0.3080 -1.2478  1.0959
 3399SOL     OW18919   4.842   2.134   0.508 -0.0572 -0.2724  0.0043
 3399SOL    HW118920   4.756   2.156   0.554 -0.9819 -2.2308 -0.7133
 3399SOL    HW218921   4.865   2.038   0.524  2.6136  0.5083  1.1352
 3400SOL     OW18922   3.508   2.675   0.621 -0.2781  0.7180  0.2165
 3400SOL    HW118923   3.440   2.626   0.565  0.8552  1.1951 -1.6265
 3400SOL    HW218924   3.490   2.773   0.616 -0.7443  0.7030  1.4870
 3402SOL     OW18925   0.177   5.279   0.533  0.2715  0.4589 -0.3888
 3402SOL    HW118926   0.222   5.366   0.511  2.0727 -0.0565  1.0994
 3402SOL    HW218927   0.126   5.289   0.619 -0.4338  0.3464 -0.7915
 3404SOL     OW18928   2.862   9.472   0.720 -0.1584  0.0483  0.0925
 3404SOL    HW118929   2.821   9.381   0.715  0.8808 -0.4337  0.0957
 3404SOL    HW218930   2.935   9.479   0.653 -1.3976  1.5068 -1.1257
 3405SOL     OW18931   6.448   9.426   2.323 -0.7218  0.4383  0.5100
 3405SOL    HW118932   6.411   9.372   2.398  0.0590  0.1842  0.7097
 3405SOL    HW218933   6.547   9.416   2.319 -0.9494 -1.3259 -1.9093
 3407SOL     OW18934   6.530   0.440   0.314  0.0934 -0.0894 -0.3178
 3407SOL    HW118935   6.458   0.423   0.247 -1.1213  0.1678  0.8904
 3407SOL    HW218936   6.568   0.353   0.346 -0.5446 -0.2723 -0.0519
 3408SOL     OW18937   9.785   4.416   4.404 -0.2386 -0.3011  0.1826
 3408SOL    HW118938   9.851   4.472   4.354  0.0822  0.0395  0.9950
 3408SOL    HW218939   9.694   4.454   4.391 -0.2418 -0.5628 -0.6401
 3409SOL     OW18940   3.440   3.107   4.214  0.3768  0.0565  0.4229
 3409SOL    HW118941   3.449   3.176   4.143  0.5882  0.5443  0.9213
 3409SOL    HW218942   3.392   3.027   4.177 -1.0614  1.0010  0.2176
 3411SOL     OW18943   6.764   9.998   0.892 -0.4917 -0.2113 -0.5108
 3411SOL    HW118944   6.683  10.005   0.952 -0.5088 -0.1523 -0.5403
 3411SOL    HW218945   6.846   9.994   0.949 -0.4435  0.7492 -0.4905
 3413SOL     OW18946   7.291   0.116   1.077 -0.4620  0.0581  0.2543
 3413SOL    HW118947   7.249   0.192   1.029 -2.5274 -0.4848  1.1325
 3413SOL    HW218948   7.390   0.132   1.086 -0.4207  1.2734 -2.0127
 3414SOL     OW18949   9.659   0.348   2.691  0.4209 -0.1705  0.2009
 3414SOL    HW118950   9.590   0.276   2.699  0.3167 -0.1881 -0.7727
 3414SOL    HW218951   9.699   0.366   2.781  0.4318 -1.4215  0.4505
 3415SOL     OW18952   8.672   0.227   3.547  0.1645  0.5997  0.3446
 3415SOL    HW118953   8.761   0.243   3.504 -0.6656  1.1685 -1.2367
 3415SOL    HW218954   8.682   0.160   3.620  1.5354 -0.9403 -1.1842
 3416SOL     OW18955   2.651   1.197   2.199  0.2264  0.1572  0.2616
 3416SOL    HW118956   2.593   1.278   2.197 -0.4532 -0.2918  1.1082
 3416SOL    HW218957   2.615   1.129   2.135 -0.3661 -0.2395  1.0119
 3417SOL     OW18958   1.133   7.340   3.833 -0.4547  0.5467  0.4467
 3417SOL    HW118959   1.204   7.296   3.888 -1.0451  0.1612  0.8969
 3417SOL    HW218960   1.087   7.410   3.888  0.9977  2.2960 -0.4904
 3418SOL     OW18961   4.056   1.858   2.204 -0.0888  0.1197 -0.0847
 3418SOL    HW118962   4.102   1.806   2.276 -2.3530 -1.8640 -0.0100
 3418SOL    HW218963   4.018   1.795   2.137 -1.0350  1.7944 -1.1505
 3420SOL     OW18964   8.082   0.666   0.565 -0.8778  0.2404  0.3722
 3420SOL    HW118965   8.165   0.697   0.519  0.4372 -0.1518  2.4336
 3420SOL    HW218966   8.037   0.596   0.509  0.8305 -0.4149 -0.2003
 3421SOL     OW18967   3.679   4.024   2.968 -0.1563  0.2773 -0.6981
 3421SOL    HW118968   3.738   4.089   2.919 -0.0695  0.1088 -0.8170
 3421SOL    HW218969   3.716   3.932   2.959  0.6882  0.4428  0.9754
 3422SOL     OW18970   3.153   8.276   2.437  0.1263  0.1707 -0.8748
 3422SOL    HW118971   3.088   8.211   2.398 -0.3186 -0.1562  0.3767
 3422SOL    HW218972   3.235   8.227   2.468  1.1979  0.6374 -2.8678
 3423SOL     OW18973   3.414   7.678   4.339  0.1602  0.3295 -0.0910
 3423SOL    HW118974   3.403   7.621   4.257  1.9697 -1.2030  0.6846
 3423SOL    HW218975   3.328   7.725   4.358 -1.2658 -1.7497 -1.0632
 3425SOL     OW18976   0.009   0.594   3.167 -0.4006 -0.1177  0.5838
 3425SOL    HW118977   0.040   0.689   3.161  1.4546 -0.6520  1.2678
 3425SOL    HW218978  -0.036   0.568   3.081 -0.5028  1.2274  0.2196
 3426SOL     OW18979   1.213   7.594   0.111  0.3613  0.2195  0.4327
 3426SOL    HW118980   1.226   7.558   0.203  0.1865 -0.9510 -0.0009
 3426SOL    HW218981   1.130   7.651   0.109  1.1084  1.3492  1.3128
 3428SOL     OW18982   6.136   9.797   4.165  0.3500  0.4348  0.2445
 3428SOL    HW118983   6.140   9.732   4.090  0.8674  2.7446 -1.8089
 3428SOL    HW218984   6.041   9.808   4.194 -0.0924  0.8387 -1.2972
 3429SOL     OW18985   8.193   3.900   3.663  0.2982  0.5122  0.0213
 3429SOL    HW118986   8.145   3.890   3.750  1.8869  0.2311  0.8695
 3429SOL    HW218987   8.216   3.810   3.627  1.1757  0.6821  0.1622
 3430SOL     OW18988   1.841   1.985   4.215  0.1411  0.0107 -0.4523
 3430SOL    HW118989   1.757   2.012   4.167 -0.3944 -2.0968 -0.7625
 3430SOL    HW218990   1.879   1.903   4.172  1.2261 -0.2543  0.9833
 3433SOL     OW18991   0.286   1.595   1.114 -0.5404  0.4243 -0.3131
 3433SOL    HW118992   0.287   1.626   1.209  0.0874 -0.5396 -0.0057
 3433SOL    HW218993   0.371   1.622   1.069 -0.0899 -0.6249 -0.1094
 3434SOL     OW18994   8.358   4.520   0.079 -0.0216 -0.2482  0.4408
 3434SOL    HW118995   8.454   4.542   0.098  0.1474 -0.8241  0.2534
 3434SOL    HW218996   8.316   4.484   0.162 -0.3592  0.9834  0.8120
 3435SOL     OW18997   1.728   9.124   2.391 -0.6194 -0.6268  0.7054
 3435SOL    HW118998   1.690   9.196   2.334  0.7980 -0.0186  0.5188
 3435SOL    HW218999   1.750   9.044   2.335  0.2516 -0.2364  0.4940
 3437SOL     OW19000   9.545   9.996   0.594  0.4535  0.1850 -0.0748
 3437SOL    HW119001   9.598  10.035   0.518  2.6508  0.7129  1.6511
 3437SOL    HW219002   9.608   9.955   0.660 -1.2659  1.2551  2.2997
 3438SOL     OW19003   6.662   8.007   2.285  0.0064 -0.3814  0.1515
 3438SOL    HW119004   6.578   7.953   2.286 -1.2215  1.4537 -0.6973
 3438SOL    HW219005   6.667   8.062   2.369  0.5657 -0.7965  0.3922
 3439SOL     OW19006   7.302   0.537   1.203 -1.1440  0.2060  0.2707
 3439SOL    HW119007   7.349   0.601   1.141 -1.7367  1.1321  0.7602
 3439SOL    HW219008   7.235   0.588   1.258 -0.0787 -0.4596  2.2236
 3440SOL     OW19009   2.178   4.191   3.963  0.2998  0.3791 -0.7517
 3440SOL    HW119010   2.083   4.191   3.933  0.0474 -0.0799  0.0309
 3440SOL    HW219011   2.213   4.285   3.961 -0.5229  0.7115  0.0468
 3441SOL     OW19012   2.231   8.362   4.388  0.3802  0.2112  0.0424
 3441SOL    HW119013   2.163   8.308   4.438  0.9101 -1.0388 -0.5614
 3441SOL    HW219014   2.322   8.342   4.424  0.3738  2.6911  1.5809
 3443SOL     OW19015   0.276   0.711   1.711  0.2704 -0.5969  0.4564
 3443SOL    HW119016   0.263   0.758   1.798  1.2378 -1.3040  1.0019
 3443SOL    HW219017   0.362   0.660   1.714  0.6237 -0.1403 -1.1337
 3444SOL     OW19018   4.194   8.656   1.005  0.0548  1.0187 -0.4238
 3444SOL    HW119019   4.114   8.596   1.006 -1.2828  2.7316  1.5920
 3444SOL    HW219020   4.229   8.665   0.912 -1.0193 -1.1712 -1.0539
 3445SOL     OW19021   0.685   1.655   1.269  0.1349  0.2747 -0.1712
 3445SOL    HW119022   0.710   1.582   1.205 -0.9097  0.3087 -0.6248
 3445SOL    HW219023   0.604   1.628   1.321 -0.7391  1.4306 -0.9121
 3447SOL     OW19024   2.474   6.677   2.440  0.0357  0.1848  0.1982
 3447SOL    HW119025   2.563   6.631   2.444 -0.0517  0.0716  0.9323
 3447SOL    HW219026   2.401   6.608   2.439 -0.0991  0.3005  1.3874
 3448SOL     OW19027   7.151   6.574   2.838  0.0245 -0.3731  0.3907
 3448SOL    HW119028   7.160   6.614   2.747  1.3799 -1.3456  0.0595
 3448SOL    HW219029   7.183   6.639   2.907  0.6206 -0.2574  0.0092
 3450SOL     OW19030   2.152   3.391   2.986 -0.1350 -0.3623 -0.5268
 3450SOL    HW119031   2.080   3.322   2.998 -0.1480 -0.3843 -0.7445
 3450SOL    HW219032   2.129   3.472   3.040 -0.1208 -0.5250 -0.2720
 3451SOL     OW19033   1.218   7.921   2.281  0.0028  0.2087  0.3187
 3451SOL    HW119034   1.295   7.984   2.273  0.1079 -0.0239 -0.5185
 3451SOL    HW219035   1.208   7.869   2.196 -1.3199  0.5045  0.2865
 3452SOL     OW19036   3.073   4.040   0.778  0.2239 -0.0181  0.2737
 3452SOL    HW119037   3.133   4.106   0.732  0.5418 -0.5905 -0.1454
 3452SOL    HW219038   3.128   3.979   0.835 -0.2860  1.3822  2.2853
 3453SOL     OW19039   0.170   5.378   1.742 -0.7817 -0.3931  0.2105
 3453SOL    HW119040   0.265   5.374   1.712 -0.9137 -2.9195 -0.0054
 3453SOL    HW219041   0.112   5.408   1.665 -0.1644  1.3127  0.3938
 3454SOL     OW19042   9.809   6.924   2.712  0.4068  0.0196  0.0934
 3454SOL    HW119043   9.721   6.918   2.664  1.1646  0.4780 -1.4062
 3454SOL    HW219044   9.842   6.832   2.732 -1.4148 -0.1432  2.6178
 3455SOL     OW19045   9.324   9.606   1.416 -0.1998  0.1881  0.0074
 3455SOL    HW119046   9.260   9.675   1.448 -1.7401 -0.7134 -1.0256
 3455SOL    HW219047   9.378   9.643   1.340  1.4453  1.3771  1.7204
 3458SOL     OW19048   9.820   0.018   4.337  0.5245  0.2456 -0.6749
 3458SOL    HW119049   9.853   0.107   4.305 -0.5788  1.3293  1.1144
 3458SOL    HW219050   9.721   0.014   4.328  0.5277 -0.6593 -0.3515
 3459SOL     OW19051   0.801   3.751   3.117  0.0819 -0.1597  0.2341
 3459SOL    HW119052   0.707   3.716   3.120  0.3473 -0.7693  2.3373
 3459SOL    HW219053   0.809   3.829   3.178 -0.0249  2.4871 -3.0081
 3460SOL     OW19054   5.013   1.971   3.017 -0.0877 -0.0358  0.5729
 3460SOL    HW119055   4.915   1.961   3.004 -0.2651  0.6192  1.3786
 3460SOL    HW219056   5.037   2.068   3.017  0.6389 -0.2006 -0.1435
 3461SOL     OW19057   6.236   9.296   2.670  0.4998  0.4738  0.4039
 3461SOL    HW119058   6.246   9.382   2.619  0.9439  0.8375  1.0894
 3461SOL    HW219059   6.323   9.246   2.669  0.2779  0.0949  0.1157
 3462SOL     OW19060   7.553   4.009   0.668  0.5885 -0.1156 -0.4788
 3462SOL    HW119061   7.539   3.922   0.620 -1.4684  0.5570 -1.1344
 3462SOL    HW219062   7.586   3.991   0.761 -1.5069 -1.6919 -0.0054
 3463SOL     OW19063   3.610   9.441   3.178  0.3287 -0.1519 -0.0256
 3463SOL    HW119064   3.650   9.427   3.088  1.8748  1.1461  0.4224
 3463SOL    HW219065   3.531   9.503   3.170  0.4419 -0.0657 -0.4933
 3464SOL     OW19066   3.096   3.119   4.418  0.0623 -0.1119  0.1686
 3464SOL    HW119067   3.144   3.107   4.331  1.0726  0.7249  0.6072
 3464SOL    HW219068   3.156   3.164   4.483 -1.0793  0.2887  0.9534
 3465SOL     OW19069   5.006   9.926   2.076 -0.3093  0.0697  0.0248
 3465SOL    HW119070   4.996   9.875   2.161 -3.8429 -1.9801 -1.5205
 3465SOL    HW219071   5.047   9.867   2.006 -0.6014  0.6637 -0.6578
 3466SOL     OW19072   1.477   2.852   0.848  0.3340 -0.0025 -0.3830
 3466SOL    HW119073   1.403   2.906   0.808  0.3924 -0.5679 -1.2679
 3466SOL    HW219074   1.460   2.840   0.946 -0.6250  0.0616 -0.5345
 3467SOL     OW19075   0.132   7.626   4.142 -0.4860 -0.1631  0.0046
 3467SOL    HW119076   0.064   7.665   4.205  0.0095 -0.5992  0.8323
 3467SOL    HW219077   0.222   7.631   4.184  0.2603  1.9253 -1.7968
 3468SOL     OW19078   3.944   9.327   2.599 -0.6129 -0.0421  0.1549
 3468SOL    HW119079   3.984   9.241   2.569 -1.9203 -1.0096  1.1374
 3468SOL    HW219080   4.006   9.373   2.662  0.7691  0.4976 -1.5627
 3471SOL     OW19081   3.432   9.297   1.361  0.3021  0.3336  0.1257
 3471SOL    HW119082   3.478   9.310   1.274 -2.7396 -0.7465 -1.7235
 3471SOL    HW219083   3.367   9.372   1.376 -1.5207 -1.1537 -0.1311
 3472SOL     OW19084   3.249   5.647   2.787  0.4593 -0.1814 -0.5018
 3472SOL    HW119085   3.161   5.685   2.814 -0.1751 -0.5582 -1.9610
 3472SOL    HW219086   3.281   5.693   2.704 -0.4464 -2.9486 -2.4426
 3473SOL     OW19087   4.489   5.500   1.009  0.0456  0.1178 -0.0664
 3473SOL    HW119088   4.548   5.476   0.932  1.1961  1.9419  0.2027
 3473SOL    HW219089   4.480   5.600   1.013 -1.5438 -0.0649  1.0228
 3474SOL     OW19090   0.672   9.053   0.990  0.2670 -0.1741 -0.3443
 3474SOL    HW119091   0.585   9.088   1.024 -0.4857 -1.4918 -0.8991
 3474SOL    HW219092   0.711   9.118   0.925 -0.6494  0.0856 -0.6371
 3475SOL     OW19093   9.712   9.515   3.547  0.8521  0.4465  0.2381
 3475SOL    HW119094   9.800   9.483   3.581  0.8683  2.4246  2.2073
 3475SOL    HW219095   9.652   9.536   3.624 -1.6112 -1.5241 -1.0876
 3476SOL     OW19096   3.846   3.062   3.681 -0.3788  0.1484  0.0447
 3476SOL    HW119097   3.943   3.043   3.697 -0.6642  0.5084  2.4718
 3476SOL    HW219098   3.833   3.160   3.667 -0.5679  0.3343  1.4165
 3478SOL     OW19099   7.552   0.196   1.158  0.4165 -0.1044 -0.6526
 3478SOL    HW119100   7.543   0.270   1.225 -1.3259  0.5766 -1.6115
 3478SOL    HW219101   7.646   0.193   1.124  0.9063  0.6059  0.6032
 3479SOL     OW19102   0.612   9.465   0.436  0.5738  0.4797 -0.0066
 3479SOL    HW119103   0.515   9.474   0.459  0.3214  0.2489 -0.9418
 3479SOL    HW219104   0.638   9.539   0.374  0.8781  0.2719 -0.1268
 3480SOL     OW19105   7.548   0.349   0.497 -0.3746 -0.1381  0.5592
 3480SOL    HW119106   7.641   0.354   0.534 -0.7047 -1.0401  1.5242
 3480SOL    HW219107   7.485   0.394   0.560 -0.7749 -0.6369  0.5156
 3481SOL     OW19108   2.148   0.434   1.643  0.6743  0.2380 -0.3036
 3481SOL    HW119109   2.184   0.343   1.666 -0.1215  0.2450  1.0345
 3481SOL    HW219110   2.128   0.438   1.545  0.1881 -1.2125 -0.2737
 3482SOL     OW19111   7.216   7.398   2.513  0.0789 -0.6467  0.3820
 3482SOL    HW119112   7.240   7.411   2.417 -1.4297  0.9307  0.1966
 3482SOL    HW219113   7.142   7.330   2.520  0.9820 -1.6258  0.5334
 3483SOL     OW19114   9.239   5.993   2.458  0.1692  0.6593 -0.0688
 3483SOL    HW119115   9.144   5.978   2.486 -0.4377  1.3104 -1.7463
 3483SOL    HW219116   9.285   5.905   2.447 -0.4949  0.3155 -0.1163
 3484SOL     OW19117   0.414   6.680   1.236 -0.1210 -0.4660 -0.5786
 3484SOL    HW119118   0.411   6.580   1.246  2.5225 -0.4864  0.6255
 3484SOL    HW219119   0.471   6.703   1.157  0.0677  0.0915 -0.2810
 3486SOL     OW19120   5.105   0.842   1.925  0.1855 -0.1816 -0.0118
 3486SOL    HW119121   5.033   0.807   1.985 -0.5268  0.7326 -0.3211
 3486SOL    HW219122   5.191   0.795   1.945 -0.4977 -1.2978  0.3471
 3487SOL     OW19123   0.881   2.804   3.095 -0.2875 -0.1689 -0.1839
 3487SOL    HW119124   0.872   2.710   3.128 -1.4223  0.5964  1.7717
 3487SOL    HW219125   0.812   2.861   3.140  0.2818  1.5668 -1.4871
 3488SOL     OW19126   1.722   1.084   1.717 -0.1178  0.2363 -0.5347
 3488SOL    HW119127   1.643   1.131   1.677 -0.5868  0.0218  0.1347
 3488SOL    HW219128   1.695   0.993   1.748  0.5962 -0.1657 -1.0766
 3489SOL     OW19129   0.154   5.595   3.561  0.6258  0.3641  0.3545
 3489SOL    HW119130   0.221   5.603   3.635  1.4249 -1.3739 -0.1573
 3489SOL    HW219131   0.200   5.563   3.478 -0.2625  2.2904 -0.9154
 3490SOL     OW19132   7.770   9.849   2.078  0.0914  0.3517 -0.1411
 3490SOL    HW119133   7.743   9.904   1.999  0.3076  0.6707  0.0040
 3490SOL    HW219134   7.730   9.887   2.161 -0.8588 -0.5040 -0.1963
 3491SOL     OW19135   8.975   1.751   3.302 -0.1382 -0.5520  0.9961
 3491SOL    HW119136   8.932   1.840   3.317 -0.5327 -0.7632  1.1216
 3491SOL    HW219137   9.069   1.753   3.336 -0.9140 -0.9208  3.1861
 3492SOL     OW19138   2.104   1.374   2.071 -0.1768 -0.0094 -0.3756
 3492SOL    HW119139   2.191   1.376   2.119 -0.6057  1.3862  0.3699
 3492SOL    HW219140   2.121   1.366   1.972  0.7410 -1.2851 -0.1180
 3494SOL     OW19141   9.033   0.578   2.665  0.2335 -0.2526  0.1319
 3494SOL    HW119142   9.096   0.503   2.649  0.1355 -0.0714 -1.1794
 3494SOL    HW219143   9.084   0.659   2.697  0.3320 -0.8614  1.5727
 3495SOL     OW19144   0.799   2.772   2.480 -0.1601  0.3462 -0.5841
 3495SOL    HW119145   0.812   2.692   2.538 -1.7019  1.0332  0.7435
 3495SOL    HW219146   0.882   2.827   2.480  0.0803 -0.0033  0.4476
 3497SOL     OW19147   0.527   2.989   0.175 -0.0606 -0.2272 -0.1945
 3497SOL    HW119148   0.550   3.015   0.269  0.0050 -0.0760 -0.2532
 3497SOL    HW219149   0.492   2.895   0.175  1.6189 -0.8760 -0.2482
 3498SOL     OW19150   2.406   5.458   2.868 -0.4030 -0.3278 -0.1339
 3498SOL    HW119151   2.355   5.421   2.946 -1.0329 -1.4317 -1.0475
 3498SOL    HW219152   2.455   5.384   2.822 -0.4051  0.2278 -1.0541
 3499SOL     OW19153   1.500   5.881   1.345 -0.4418  0.0257  0.2884
 3499SOL    HW119154   1.469   5.790   1.372 -0.6756 -0.0455 -0.2224
 3499SOL    HW219155   1.560   5.873   1.265  0.3023  0.2308  0.8164
 3500SOL     OW19156   8.989   1.297   0.516  0.5565 -0.2442  0.4179
 3500SOL    HW119157   8.934   1.215   0.499 -0.3005  0.3182  0.4580
 3500SOL    HW219158   9.073   1.292   0.462  1.1253 -1.7536  1.3981
 3501SOL     OW19159   9.538   8.512   3.100  0.5271  0.1533 -0.3553
 3501SOL    HW119160   9.479   8.446   3.054  1.6435  0.2223 -1.9472
 3501SOL    HW219161   9.500   8.604   3.089 -1.2350 -0.2315  2.2015
 3503SOL     OW19162   6.769   8.557   3.919 -0.1286 -0.3012  0.8997
 3503SOL    HW119163   6.709   8.558   4.000 -2.2759 -3.5921 -0.5542
 3503SOL    HW219164   6.734   8.620   3.851 -0.1736  0.0552  1.2492
 3504SOL     OW19165   3.732   6.787   3.322  0.0505 -0.0652  0.2675
 3504SOL    HW119166   3.703   6.854   3.253 -1.0739 -0.8632 -0.0607
 3504SOL    HW219167   3.772   6.708   3.276 -1.8603 -1.1539  0.4473
 3505SOL     OW19168   4.645   1.897   2.091 -0.0792 -0.8312  0.4930
 3505SOL    HW119169   4.576   1.880   2.161 -0.3902  0.4147  0.4986
 3505SOL    HW219170   4.730   1.850   2.116 -0.3943 -0.9419  1.3719
 3506SOL     OW19171   0.971   3.043   1.154 -0.2097 -0.2445  0.7651
 3506SOL    HW119172   1.015   2.960   1.187 -0.1137 -0.4597  0.1069
 3506SOL    HW219173   0.927   3.025   1.066  0.8904  0.7218 -0.0111
 3507SOL     OW19174   7.011   9.058   1.823  0.4415 -0.0782 -0.2970
 3507SOL    HW119175   6.950   9.054   1.902  1.2132 -0.0033  0.3119
 3507SOL    HW219176   7.005   8.973   1.772  1.6220 -1.0361  1.1167
 3509SOL     OW19177   2.143   3.843   0.789 -0.0051  0.2575 -0.4443
 3509SOL    HW119178   2.131   3.751   0.751  1.0824 -0.3964  0.7262
 3509SOL    HW219179   2.068   3.902   0.759 -0.7429 -1.0271 -1.1723
 3510SOL     OW19180   9.507   0.024   2.485 -0.2247 -0.1814  0.3340
 3510SOL    HW119181   9.478   0.097   2.548 -0.4542 -0.8158  0.9731
 3510SOL    HW219182   9.607   0.016   2.488 -0.1034  0.8338 -0.5606
 3511SOL     OW19183   4.467   7.347   4.236 -0.6446 -0.0628  0.1123
 3511SOL    HW119184   4.524   7.281   4.188  1.9851  1.2510  1.3074
 3511SOL    HW219185   4.484   7.341   4.334 -0.1903  2.4507  0.2403
 3512SOL     OW19186   8.565   4.859   4.068 -0.1518  0.0792  0.0782
 3512SOL    HW119187   8.499   4.786   4.051  0.0287 -0.1742  0.4582
 3512SOL    HW219188   8.631   4.863   3.994 -0.8469  0.6179 -0.5266
 3513SOL     OW19189   1.730   4.298   1.684  0.0456 -0.8304  0.2693
 3513SOL    HW119190   1.690   4.390   1.687 -1.1514 -1.2792 -0.9621
 3513SOL    HW219191   1.827   4.302   1.708 -0.3094  0.5619  1.4971
 3515SOL     OW19192   0.603   1.151   1.382  0.0024 -0.6820  0.1754
 3515SOL    HW119193   0.560   1.201   1.307  0.7096  0.1573  0.3257
 3515SOL    HW219194   0.656   1.075   1.346  2.9434  1.5844 -0.4497
 3517SOL     OW19195   2.495   6.157   3.854  0.1944  0.3195  0.8360
 3517SOL    HW119196   2.542   6.096   3.918 -1.2032  0.1140  1.6837
 3517SOL    HW219197   2.470   6.105   3.772  0.1334  0.0592  1.0176
 3518SOL     OW19198   6.222   1.330   3.488 -0.0504  0.1671 -0.7781
 3518SOL    HW119199   6.249   1.372   3.401 -0.3138 -1.0163 -1.4398
 3518SOL    HW219200   6.129   1.294   3.481 -0.0228 -0.0640 -0.0452
 3519SOL     OW19201   8.774   0.996   1.527  0.3063 -0.2107 -0.2003
 3519SOL    HW119202   8.680   0.980   1.497  0.8608 -1.9191 -1.1097
 3519SOL    HW219203   8.779   0.987   1.627 -0.7777  1.4528  0.0131
 3520SOL     OW19204   7.385   7.164   2.427 -0.0507 -0.2800 -0.1100
 3520SOL    HW119205   7.317   7.129   2.362 -1.1797  0.9390  0.3853
 3520SOL    HW219206   7.360   7.257   2.453  2.0855  0.3601 -0.2816
 3521SOL     OW19207   8.182   4.611   3.277 -0.0081 -0.8184  0.0026
 3521SOL    HW119208   8.105   4.674   3.285 -0.6183 -1.5695  0.1335
 3521SOL    HW219209   8.232   4.629   3.193 -0.4382 -0.4473 -0.1728
 3522SOL     OW19210   5.015   7.420   4.351  0.0387 -0.1536  0.2477
 3522SOL    HW119211   5.067   7.340   4.323 -1.8105 -1.4601  0.4487
 3522SOL    HW219212   4.983   7.407   4.445 -0.7766  0.5587  0.0718
 3523SOL     OW19213   8.917   7.101   2.668  0.2651  0.8878  0.4631
 3523SOL    HW119214   8.964   7.186   2.646  0.4494  0.8441  0.6841
 3523SOL    HW219215   8.984   7.027   2.676 -0.0096  0.4799 -0.9015
 3525SOL     OW19216   5.483   7.556   3.730 -0.4807 -0.2105  0.7742
 3525SOL    HW119217   5.480   7.561   3.631 -0.4811  3.2152  0.8749
 3525SOL    HW219218   5.573   7.524   3.760 -0.2030 -0.4476 -0.3109
 3526SOL     OW19219   8.078   4.715   4.365 -0.4026  0.2286 -0.3854
 3526SOL    HW119220   8.148   4.766   4.414 -0.1077 -1.6054  1.1368
 3526SOL    HW219221   7.997   4.706   4.423 -0.1491 -1.7150 -0.2906
 3527SOL     OW19222   0.131   6.011   0.651 -0.2829 -0.1278 -0.0610
 3527SOL    HW119223   0.229   6.027   0.642 -0.4153  0.0311 -1.4006
 3527SOL    HW219224   0.084   6.044   0.569 -1.4642 -0.1555  0.5869
 3528SOL     OW19225   1.226   5.136   1.164 -0.1837 -0.2959 -0.2280
 3528SOL    HW119226   1.143   5.118   1.217  1.2714 -3.8690  0.9508
 3528SOL    HW219227   1.301   5.156   1.227  0.5640 -0.1289 -1.1706
 3529SOL     OW19228   8.984   8.358   2.454  0.1974  0.0136 -0.1303
 3529SOL    HW119229   8.922   8.428   2.489  0.8271  0.8235 -0.6345
 3529SOL    HW219230   8.939   8.269   2.459 -1.3192  0.7006 -1.2465
 3530SOL     OW19231   2.915   1.910   1.486  0.1632  0.0538 -0.0764
 3530SOL    HW119232   2.991   1.849   1.509  0.1824 -0.2663 -0.9808
 3530SOL    HW219233   2.950   1.990   1.438 -0.0306  0.1124 -0.1213
 3532SOL     OW19234   7.926   5.642   3.449 -0.2519 -0.6343  0.2393
 3532SOL    HW119235   8.012   5.624   3.496  0.4657  0.4226 -0.6354
 3532SOL    HW219236   7.850   5.603   3.501  0.7686 -1.7519  0.9177
 3533SOL     OW19237   7.429   7.699   1.698  0.2881 -0.0453  0.5406
 3533SOL    HW119238   7.422   7.783   1.644  1.1776  0.9350  1.9125
 3533SOL    HW219239   7.361   7.701   1.772 -0.5006 -1.0904 -0.1483
 3534SOL     OW19240   8.951   7.730   0.979  0.3412 -0.0570 -0.6721
 3534SOL    HW119241   8.861   7.754   1.016  0.1718  1.2118 -1.8674
 3534SOL    HW219242   9.006   7.688   1.051 -0.9750 -0.2597  0.2432
 3535SOL     OW19243   8.210   3.769   4.141 -0.3494  0.1040 -0.1919
 3535SOL    HW119244   8.212   3.857   4.188 -1.5339 -0.1264  0.3265
 3535SOL    HW219245   8.154   3.705   4.194 -0.2126 -0.6980 -1.0103
 3536SOL     OW19246   2.566   3.066   4.153  0.0328  0.0149  0.2449
 3536SOL    HW119247   2.558   2.981   4.206  0.2392 -0.3643 -0.3181
 3536SOL    HW219248   2.555   3.145   4.213  1.2553 -0.3956  1.0238
 3537SOL     OW19249   6.541   8.048   2.737  0.6859 -0.6614  0.0534
 3537SOL    HW119250   6.623   8.096   2.708 -0.3658  1.0869 -0.0974
 3537SOL    HW219251   6.566   7.966   2.788  2.5155 -0.3015 -0.2512
 3538SOL     OW19252   8.255   9.132   0.556  0.3100  0.2839  0.4722
 3538SOL    HW119253   8.164   9.161   0.585  0.1317  1.4165 -1.1697
 3538SOL    HW219254   8.323   9.168   0.620 -0.3115  0.0905  1.2609
 3539SOL     OW19255   0.108   2.630   4.277 -0.2458  0.3542 -0.4360
 3539SOL    HW119256   0.156   2.558   4.328 -0.6595  0.2785 -0.1532
 3539SOL    HW219257   0.158   2.716   4.287 -0.2424  0.3079 -0.0192
 3540SOL     OW19258   7.690   8.315   0.933 -0.1386  0.1390 -0.5877
 3540SOL    HW119259   7.596   8.351   0.928 -0.1066  0.0922 -1.7343
 3540SOL    HW219260   7.751   8.374   0.880  0.2686 -0.4849 -0.8178
 3541SOL     OW19261   1.166   4.074   3.185  0.2288 -0.4160  0.4372
 3541SOL    HW119262   1.119   3.998   3.229 -0.1690  0.4107  1.4420
 3541SOL    HW219263   1.203   4.136   3.254  0.8986  0.1007 -0.3682
 3543SOL     OW19264   9.307   0.740   3.498 -0.0459  0.3873  0.3669
 3543SOL    HW119265   9.370   0.701   3.564  0.7008 -1.1596 -1.2357
 3543SOL    HW219266   9.242   0.800   3.545 -0.6524 -2.0673  2.7570
 3544SOL     OW19267   9.032   6.835   2.514  0.3775 -0.0280  0.0405
 3544SOL    HW119268   9.060   6.740   2.496  1.8643  0.3409  0.3590
 3544SOL    HW219269   9.036   6.851   2.613 -1.2319 -0.0409  0.1160
 3545SOL     OW19270   1.643   9.077   2.124 -0.0678 -0.6117 -0.1679
 3545SOL    HW119271   1.671   9.159   2.073 -0.5113 -1.7137 -2.2582
 3545SOL    HW219272   1.544   9.076   2.134 -0.1865 -1.5625 -1.3615
 3546SOL     OW19273   3.244   7.901   0.914 -0.3944 -0.7243  0.4205
 3546SOL    HW119274   3.202   7.949   0.991 -1.0032 -3.1054  1.6119
 3546SOL    HW219275   3.198   7.927   0.829 -1.3881  0.0060  1.1675
 3547SOL     OW19276   1.753   6.512   1.903  0.0871 -0.1986 -0.2198
 3547SOL    HW119277   1.671   6.492   1.849  0.2160 -0.3748 -0.3517
 3547SOL    HW219278   1.834   6.505   1.844  0.3697 -1.9107  0.3476
 3548SOL     OW19279   2.801   0.521   3.586 -0.3858 -0.1764  0.5207
 3548SOL    HW119280   2.836   0.445   3.531 -0.4973 -1.5764  2.3162
 3548SOL    HW219281   2.875   0.586   3.604  0.6427 -1.7048  1.9639
 3549SOL     OW19282   7.646   0.927   3.328 -0.3636  0.0026  0.3999
 3549SOL    HW119283   7.662   1.025   3.316  0.4606 -0.1820 -0.0260
 3549SOL    HW219284   7.630   0.884   3.239  1.7532 -0.6781  0.3306
 3550SOL     OW19285   2.319   7.209   1.739 -0.4429  0.2066 -0.7907
 3550SOL    HW119286   2.391   7.258   1.789  0.8829 -1.0840 -1.3737
 3550SOL    HW219287   2.260   7.161   1.804 -1.0121  1.5826 -0.2842
 3551SOL     OW19288   1.869   4.984   1.233 -0.1674  0.5115 -0.4805
 3551SOL    HW119289   1.819   5.053   1.181 -0.8432  0.9010  0.6713
 3551SOL    HW219290   1.811   4.905   1.248 -0.9124  1.4528  1.9024
 3552SOL     OW19291   3.027   0.933   1.725 -0.0062  0.7837  0.1988
 3552SOL    HW119292   3.014   0.839   1.756 -0.3763  1.1469  1.1777
 3552SOL    HW219293   2.983   0.946   1.636  1.2328 -0.3296 -0.5727
 3553SOL     OW19294   6.950   1.631   2.240 -0.2308  0.1608  0.2754
 3553SOL    HW119295   7.007   1.658   2.162  0.3485  0.5440  0.8344
 3553SOL    HW219296   6.919   1.537   2.227  1.1583 -0.3185  0.3525
 3554SOL     OW19297   7.645   9.632   4.036  0.2482  0.3813  0.1975
 3554SOL    HW119298   7.732   9.584   4.037  0.8384  1.4541  0.8837
 3554SOL    HW219299   7.570   9.565   4.040  1.0205 -0.5359 -0.3530
 3555SOL     OW19300   8.346   3.179   2.585  0.2491  0.1382  0.1183
 3555SOL    HW119301   8.388   3.265   2.615  2.0512 -1.4840  2.4047
 3555SOL    HW219302   8.382   3.154   2.495  0.4241  1.2863 -0.1409
 3556SOL     OW19303   8.245   0.392   1.122  0.7393  0.6565  0.2115
 3556SOL    HW119304   8.224   0.348   1.035  0.2478  2.0803 -0.4057
 3556SOL    HW219305   8.285   0.482   1.105  1.5712  0.5372  1.4538
 3557SOL     OW19306   3.573   2.291   0.278  0.0004 -0.0085  0.4250
 3557SOL    HW119307   3.592   2.348   0.358  1.3037  0.7387 -0.3980
 3557SOL    HW219308   3.658   2.274   0.229 -0.9405  0.3832 -1.3563
 3558SOL     OW19309   7.329   6.055   3.790 -0.4618  0.2358  0.3115
 3558SOL    HW119310   7.397   6.009   3.732  0.0819  0.3633  0.8354
 3558SOL    HW219311   7.260   6.098   3.732 -1.7927 -2.4438 -0.1545
 3559SOL     OW19312   1.223   2.695   1.933 -0.2957 -0.0435  0.3040
 3559SOL    HW119313   1.285   2.621   1.962  0.5346 -0.5560 -2.6122
 3559SOL    HW219314   1.268   2.783   1.948  1.6666 -0.4540 -2.7900
 3560SOL     OW19315   9.260   8.553   0.963 -0.4365  0.2160 -0.1403
 3560SOL    HW119316   9.192   8.626   0.969  0.9105  1.4380  0.1932
 3560SOL    HW219317   9.261   8.502   1.049 -0.6877  0.4149 -0.0181
 3563SOL     OW19318   4.963   9.639   3.488 -1.0616  0.5299  0.1940
 3563SOL    HW119319   4.982   9.736   3.471 -0.9445  0.4808  0.0336
 3563SOL    HW219320   4.865   9.625   3.497 -1.0319  0.7717  0.8753
 3564SOL     OW19321   0.123   9.216   3.664  0.8134 -0.0223 -0.7611
 3564SOL    HW119322   0.046   9.158   3.691  0.2724  1.2123  0.4656
 3564SOL    HW219323   0.201   9.198   3.724  0.3692  1.0845  0.1721
 3565SOL     OW19324   8.726   7.233   1.823  0.1834  0.1674  0.3625
 3565SOL    HW119325   8.655   7.303   1.825 -0.9228 -0.9659  1.1248
 3565SOL    HW219326   8.685   7.144   1.805  1.0864 -0.9019  3.3108
 3566SOL     OW19327   4.295   4.282   1.083  0.1420 -0.0753  0.3510
 3566SOL    HW119328   4.390   4.310   1.088  0.2541 -0.3798 -0.0817
 3566SOL    HW219329   4.263   4.287   0.988 -0.0820 -0.5860  0.3933
 3567SOL     OW19330   9.007   0.418   4.158 -0.6143  0.1073  0.2919
 3567SOL    HW119331   8.956   0.430   4.073  1.2319 -3.5440 -1.4280
 3567SOL    HW219332   8.945   0.387   4.230 -1.6842  0.4534 -0.4687
 3568SOL     OW19333   1.304   8.988   2.652 -0.3241 -0.2794  0.1393
 3568SOL    HW119334   1.402   9.006   2.638 -0.2487 -1.7908 -1.5175
 3568SOL    HW219335   1.266   8.947   2.569 -2.2759 -0.1220  0.9332
 3569SOL     OW19336   8.841   3.157   0.040 -0.4392  0.4044 -0.0004
 3569SOL    HW119337   8.802   3.169   0.131 -1.5456 -0.1125 -0.3860
 3569SOL    HW219338   8.899   3.076   0.039  0.1412  0.8165  0.4265
 3570SOL     OW19339   8.727   7.740   2.712  0.1847 -0.2732  0.3001
 3570SOL    HW119340   8.725   7.642   2.694 -0.7510 -0.9832  3.8629
 3570SOL    HW219341   8.647   7.784   2.670  1.0142 -0.8379 -1.9666
 3571SOL     OW19342   8.395   0.580   1.528 -0.1733  0.1840 -0.4824
 3571SOL    HW119343   8.451   0.660   1.550  1.7815 -1.6043  1.3172
 3571SOL    HW219344   8.432   0.536   1.446  0.5249 -0.4827  0.1833
 3572SOL     OW19345   0.271   3.598   0.081  0.3335  0.0258  0.9686
 3572SOL    HW119346   0.239   3.691   0.066  2.3629  0.5859 -0.0056
 3572SOL    HW219347   0.217   3.535   0.025 -0.2371  0.7388  0.7072
 3573SOL     OW19348   8.999   1.496   2.867 -0.2589  0.0126  0.3552
 3573SOL    HW119349   9.050   1.515   2.951  0.1753 -1.3973  0.4320
 3573SOL    HW219350   9.050   1.430   2.812 -1.5993 -0.7664  0.0318
 3574SOL     OW19351   8.710   8.993   0.399 -0.1051  0.3999 -0.0584
 3574SOL    HW119352   8.635   9.058   0.386 -2.5798 -2.5084 -0.7457
 3574SOL    HW219353   8.746   9.002   0.492 -2.3157  0.8305  0.7943
 3575SOL     OW19354   2.129   6.840   1.770 -0.0740  0.5112 -0.0998
 3575SOL    HW119355   2.199   6.886   1.715 -0.4016 -0.9384 -1.7826
 3575SOL    HW219356   2.173   6.776   1.833  0.1186 -0.6530 -1.3979
 3576SOL     OW19357   2.373   6.484   2.061  0.6719  0.3862  0.0408
 3576SOL    HW119358   2.303   6.524   2.121 -1.6403  0.1014 -2.3979
 3576SOL    HW219359   2.376   6.385   2.074  0.6487  0.3983  0.1398
 3577SOL     OW19360   9.695   5.660   2.756 -0.1363  0.5455 -0.3304
 3577SOL    HW119361   9.686   5.561   2.773  1.2322  0.3251 -0.8483
 3577SOL    HW219362   9.624   5.708   2.808 -1.9225 -0.8230 -1.4238
 3578SOL     OW19363   3.494   5.748   1.193 -0.0523 -0.1810  0.1299
 3578SOL    HW119364   3.526   5.829   1.144  1.2989 -0.7262  0.0849
 3578SOL    HW219365   3.545   5.667   1.161 -2.2859 -1.2710 -0.7675
 3579SOL     OW19366   7.898   8.253   1.887  0.2935  0.2565  0.3493
 3579SOL    HW119367   7.953   8.170   1.893 -0.1861 -0.1814 -0.9926
 3579SOL    HW219368   7.829   8.242   1.815  0.7946  2.1262 -0.4580
 3580SOL     OW19369   4.603   2.165   0.616  0.0103 -0.2479 -0.0023
 3580SOL    HW119370   4.522   2.108   0.605 -0.1651 -0.1566  0.8083
 3580SOL    HW219371   4.601   2.210   0.705 -0.2759  1.6622 -0.9293
 3581SOL     OW19372   7.741   6.277   3.174  0.5006  0.1603 -0.3073
 3581SOL    HW119373   7.695   6.328   3.101  0.7415  0.3928 -0.2974
 3581SOL    HW219374   7.753   6.336   3.253  1.6389  0.3779 -0.6337
 3582SOL     OW19375   2.524   2.806   3.721  0.6704  0.3035  0.3394
 3582SOL    HW119376   2.503   2.871   3.794  0.0477  0.5547 -0.0560
 3582SOL    HW219377   2.585   2.734   3.756  0.9910  0.8459  0.8965
 3583SOL     OW19378   1.992   3.518   1.886 -0.2507  0.1321 -0.0928
 3583SOL    HW119379   2.007   3.484   1.792  2.1042  0.0988  0.2791
 3583SOL    HW219380   1.928   3.594   1.883  0.0504  0.3563 -1.7801
 3584SOL     OW19381   2.667   9.123   0.721 -0.1385 -0.0101  0.3739
 3584SOL    HW119382   2.607   9.047   0.697 -0.0251  0.0225 -0.0229
 3584SOL    HW219383   2.622   9.181   0.789  0.3973 -1.2524  1.7796
 3587SOL     OW19384   5.356   8.654   1.394  0.4427 -0.1592  0.4115
 3587SOL    HW119385   5.332   8.557   1.382 -0.2614  0.0320  0.2553
 3587SOL    HW219386   5.283   8.700   1.444 -0.5268  0.8871 -1.8783
 3588SOL     OW19387   6.804   7.548   2.290  0.2585 -0.3137  0.3278
 3588SOL    HW119388   6.708   7.533   2.266  0.7264 -0.9291 -1.2294
 3588SOL    HW219389   6.825   7.646   2.284 -0.0284 -0.2860 -0.3407
 3589SOL     OW19390   6.896   0.768   2.999 -0.2471 -0.0493 -0.0841
 3589SOL    HW119391   6.812   0.820   2.985 -0.4299 -0.3491 -0.1025
 3589SOL    HW219392   6.874   0.678   3.035  0.0609 -0.1799 -0.2209
 3591SOL     OW19393   5.040   9.331   1.274 -0.1445 -0.6856 -0.0478
 3591SOL    HW119394   5.018   9.234   1.284  1.4011 -0.9231  1.1046
 3591SOL    HW219395   5.025   9.359   1.179 -0.8640 -1.9801 -0.3208
 3592SOL     OW19396   7.207   0.038   2.201 -0.1118 -0.5092  0.0030
 3592SOL    HW119397   7.280   0.076   2.145  0.2041 -2.7291 -1.1403
 3592SOL    HW219398   7.245  -0.031   2.263 -0.8897 -0.0210  1.0513
 3593SOL     OW19399   1.520   9.483   2.564  0.4393 -0.0502  0.5125
 3593SOL    HW119400   1.580   9.492   2.644 -0.3237  0.0549  1.0750
 3593SOL    HW219401   1.470   9.568   2.550  1.4639  0.3573 -0.8145
 3594SOL     OW19402   6.369   0.782   0.622 -0.0303 -0.2743  0.5270
 3594SOL    HW119403   6.393   0.782   0.719 -1.0053  1.7182  0.7966
 3594SOL    HW219404   6.422   0.712   0.575  0.8697 -0.8913  2.3944
 3595SOL     OW19405   3.214   9.099   2.262  0.3525  0.4481  0.4909
 3595SOL    HW119406   3.313   9.103   2.249 -0.0946 -0.1138 -3.7769
 3595SOL    HW219407   3.171   9.176   2.214 -1.5434 -1.5595 -1.0990
 3597SOL     OW19408   7.140   7.604   1.477 -0.0818 -0.1656 -0.1315
 3597SOL    HW119409   7.090   7.636   1.397  0.0297  0.4705  0.0571
 3597SOL    HW219410   7.081   7.606   1.557 -0.4977 -1.7428 -0.3765
 3598SOL     OW19411   7.834   2.617   0.165  0.3069  0.0128  0.1131
 3598SOL    HW119412   7.761   2.583   0.105 -0.7996  0.4870  1.1562
 3598SOL    HW219413   7.862   2.708   0.134  0.5828 -0.2464 -0.4020
 3600SOL     OW19414   9.463   7.116   4.137 -0.0369  0.5836 -0.5984
 3600SOL    HW119415   9.523   7.175   4.191  2.0353 -1.1802 -0.9298
 3600SOL    HW219416   9.474   7.138   4.040  0.3661 -0.0205 -0.6875
 3601SOL     OW19417   9.517   8.895   0.871 -0.7107  0.9626 -0.6103
 3601SOL    HW119418   9.565   8.925   0.789  0.5751 -0.2130 -0.3140
 3601SOL    HW219419   9.582   8.892   0.948 -1.3043 -0.4236 -0.1444
 3604SOL     OW19420   5.515   9.185   2.562 -0.5708 -0.2616  0.5570
 3604SOL    HW119421   5.502   9.216   2.468  0.3258 -2.4424 -0.3245
 3604SOL    HW219422   5.600   9.133   2.569 -1.0031 -0.7608  2.4031
 3605SOL     OW19423   8.682   5.091   2.857 -0.2352  0.1013 -0.0803
 3605SOL    HW119424   8.639   5.034   2.928  0.4328 -0.6636 -0.2840
 3605SOL    HW219425   8.616   5.159   2.825 -0.9072 -0.2775  0.4797
 3606SOL     OW19426   9.771   9.698   3.799  0.2191 -0.3086  0.0942
 3606SOL    HW119427   9.751   9.792   3.824 -0.1203 -0.3267 -0.1184
 3606SOL    HW219428   9.866   9.691   3.768  0.4046 -0.1346  0.6082
 3608SOL     OW19429   8.019   5.126   3.206 -0.3117  0.0433  0.0667
 3608SOL    HW119430   8.044   5.174   3.121 -1.4120 -0.0239 -0.2946
 3608SOL    HW219431   7.976   5.190   3.269 -1.2321 -0.3228 -0.1799
 3610SOL     OW19432   0.441   8.493   3.756 -0.8986  1.0768  0.0020
 3610SOL    HW119433   0.436   8.394   3.742 -0.8764  1.3055 -1.6314
 3610SOL    HW219434   0.531   8.517   3.793 -0.5201  0.6117 -0.6195
 3611SOL     OW19435   7.981   2.732   2.025 -0.2398 -0.2127  0.1286
 3611SOL    HW119436   7.969   2.819   1.977  1.6182  0.4469  0.7877
 3611SOL    HW219437   7.970   2.746   2.124 -1.3190 -1.0141  0.1303
 3612SOL     OW19438   8.672   1.108   3.110 -0.4399 -0.5076 -0.0344
 3612SOL    HW119439   8.643   1.182   3.170 -0.4844 -1.4352  1.1077
 3612SOL    HW219440   8.770   1.090   3.125 -0.1131  0.1721 -1.2439
 3613SOL     OW19441   8.700   8.137   0.698 -0.2900  0.0274 -0.1285
 3613SOL    HW119442   8.727   8.049   0.660 -1.8570 -1.1464  1.3821
 3613SOL    HW219443   8.781   8.185   0.732  0.7880 -0.0331 -2.5631
 3614SOL     OW19444   2.796   6.466   2.891 -0.5320  0.0859 -0.0185
 3614SOL    HW119445   2.714   6.499   2.937 -0.8723 -1.7856  0.7627
 3614SOL    HW219446   2.870   6.532   2.903 -1.1319  0.4622  1.6523
 3615SOL     OW19447   1.865   7.038   3.840 -0.9298  0.0925 -0.2059
 3615SOL    HW119448   1.858   6.964   3.773  0.8422 -0.8285  0.5900
 3615SOL    HW219449   1.913   7.116   3.799 -0.6273 -0.1403 -0.2999
 3616SOL     OW19450   1.705   1.845   3.912  0.8995  0.3019  0.2937
 3616SOL    HW119451   1.739   1.901   3.836  1.6043  1.0953  1.1879
 3616SOL    HW219452   1.664   1.761   3.875  0.2940  1.1530 -1.0213
 3617SOL     OW19453   7.452   8.757   1.574 -0.5296 -0.0609  0.4382
 3617SOL    HW119454   7.502   8.679   1.536 -1.2551 -0.7501  0.8752
 3617SOL    HW219455   7.516   8.816   1.624 -0.3138 -1.4526  1.8304
 3618SOL     OW19456   1.653   2.575   2.054  0.5030 -0.0149  0.1516
 3618SOL    HW119457   1.558   2.553   2.074  0.6147 -1.4499 -0.8070
 3618SOL    HW219458   1.660   2.671   2.027 -1.1547 -0.5867 -2.5664
 3619SOL     OW19459   6.443   0.619   2.265  0.4651  0.1174 -0.0135
 3619SOL    HW119460   6.390   0.540   2.296 -1.0150  1.3618  0.7372
 3619SOL    HW219461   6.469   0.607   2.169  0.7376 -1.5146  0.2559
 3620SOL     OW19462   9.883   8.190   2.644  0.3005  0.2296  0.1072
 3620SOL    HW119463   9.896   8.101   2.600  1.1137  0.3906  0.0029
 3620SOL    HW219464   9.955   8.204   2.712 -0.4542  0.3494  0.8885
 3621SOL     OW19465   1.072   8.436   4.138 -0.5006  0.6132  0.7823
 3621SOL    HW119466   0.985   8.478   4.165 -0.0638  0.3277  2.7243
 3621SOL    HW219467   1.109   8.384   4.215  0.7493 -0.3605 -0.4439
 3622SOL     OW19468   1.853   5.735   2.858 -0.3084  0.1052 -0.7304
 3622SOL    HW119469   1.764   5.780   2.848  0.0671  0.7833 -1.0737
 3622SOL    HW219470   1.888   5.709   2.768  0.3382  0.8247 -0.6944
 3623SOL     OW19471   7.489   2.263   0.098  0.1159  0.4518  0.1568
 3623SOL    HW119472   7.453   2.220   0.015 -0.1280  0.5596  0.2050
 3623SOL    HW219473   7.585   2.238   0.110  0.3904  1.0879 -0.6056
 3624SOL     OW19474   0.771   9.087   3.075 -0.4435  0.4671 -0.1204
 3624SOL    HW119475   0.676   9.098   3.047 -1.1149 -2.0225  1.0460
 3624SOL    HW219476   0.820   9.031   3.008 -1.2632 -2.9031  2.0091
 3626SOL     OW19477   3.414   0.599   1.885 -0.0008 -0.3874 -0.3889
 3626SOL    HW119478   3.411   0.507   1.926 -0.9334 -0.6322 -0.9838
 3626SOL    HW219479   3.355   0.601   1.804 -0.5826  0.9574  0.0582
 3627SOL     OW19480   0.871   7.312   3.303 -0.3851 -0.3385 -0.0788
 3627SOL    HW119481   0.884   7.387   3.238 -0.7531  0.2693  0.5409
 3627SOL    HW219482   0.919   7.333   3.388 -2.3657  0.2511  0.9124
 3628SOL     OW19483   1.146   5.462   2.451 -0.2336 -0.2296  0.7568
 3628SOL    HW119484   1.070   5.399   2.439  0.4104 -0.9932  0.6503
 3628SOL    HW219485   1.176   5.495   2.362  0.9230 -1.5713  0.6309
 3629SOL     OW19486   3.839   9.599   1.101 -0.0704  0.1167  0.3541
 3629SOL    HW119487   3.917   9.642   1.145  0.1589  1.2831 -1.1358
 3629SOL    HW219488   3.833   9.503   1.130  0.5691  0.6161  2.1930
 3630SOL     OW19489   6.065   0.854   2.168  0.1515 -0.5779 -0.0076
 3630SOL    HW119490   6.030   0.829   2.258  0.3731  0.4818  0.3871
 3630SOL    HW219491   6.165   0.850   2.168  0.2337  1.0435  0.3111
 3631SOL     OW19492   0.386   7.739   4.231 -0.1920 -0.1329 -0.4686
 3631SOL    HW119493   0.483   7.717   4.245  0.0349 -0.6501 -2.6015
 3631SOL    HW219494   0.366   7.829   4.269  1.6892  0.9592 -1.9625
 3632SOL     OW19495   5.452   9.573   3.512 -0.0991  0.2139 -0.1532
 3632SOL    HW119496   5.364   9.533   3.485  0.2469  0.4787 -1.7625
 3632SOL    HW219497   5.522   9.543   3.448  0.9588  0.1569  1.0171
 3633SOL     OW19498   0.473   2.231   0.622 -0.3432  0.6210  0.4262
 3633SOL    HW119499   0.424   2.153   0.584  1.8505 -1.0729  0.9629
 3633SOL    HW219500   0.450   2.314   0.571 -0.0284 -0.9860 -2.3915
 3634SOL     OW19501   8.740   4.087   3.276  1.2097  0.5639  0.3292
 3634SOL    HW119502   8.780   4.030   3.204 -0.4449 -2.0964  1.4808
 3634SOL    HW219503   8.796   4.082   3.358  0.1344 -0.8076  0.9896
 3636SOL     OW19504   7.980   1.363   0.187 -0.5496 -0.4311  0.2290
 3636SOL    HW119505   8.049   1.410   0.132  0.1952  0.9816  2.3130
 3636SOL    HW219506   7.908   1.428   0.214 -0.5881 -0.9576  1.4225
 3637SOL     OW19507   1.909   4.933   4.057  0.3931  0.1663 -0.5695
 3637SOL    HW119508   1.944   4.841   4.074  2.1265  1.1368  1.4828
 3637SOL    HW219509   1.818   4.942   4.097  0.1611 -0.6956 -0.9023
 3638SOL     OW19510   0.780   1.968   3.093 -0.1791 -0.5954  0.5941
 3638SOL    HW119511   0.724   1.907   3.037 -0.6390 -0.7617  1.2320
 3638SOL    HW219512   0.831   1.914   3.160  0.8263 -0.4546 -0.0470
 3639SOL     OW19513   1.874   0.029   1.965  0.0453  0.7192  0.5128
 3639SOL    HW119514   1.956   0.021   2.022  0.6974 -0.4467 -0.5712
 3639SOL    HW219515   1.882  -0.032   1.886 -0.3788  3.0580 -1.4007
 3640SOL     OW19516   9.527   5.125   0.079  0.2374 -0.1103 -0.1810
 3640SOL    HW119517   9.526   5.146  -0.019  1.2456  2.6684  0.3749
 3640SOL    HW219518   9.440   5.083   0.104 -0.0000 -0.9710 -2.2731
 3641SOL     OW19519   8.687   3.830   1.863 -0.1447  0.0107 -0.2273
 3641SOL    HW119520   8.599   3.803   1.824 -0.3617  0.1981  0.1279
 3641SOL    HW219521   8.687   3.928   1.880  0.8123  0.3261 -1.9418
 3643SOL     OW19522   6.873   9.136   1.556 -0.1961 -0.6789  0.1990
 3643SOL    HW119523   6.872   9.165   1.652 -0.8769  1.7187 -0.5095
 3643SOL    HW219524   6.781   9.141   1.518  0.1161 -1.3323 -0.6698
 3645SOL     OW19525   3.950   9.702   2.065 -0.8465  0.0719 -0.3466
 3645SOL    HW119526   3.938   9.774   2.134  0.1588 -0.9552  0.9119
 3645SOL    HW219527   3.996   9.741   1.985  1.6559  0.3842  1.1778
 3646SOL     OW19528   7.569   5.540   3.513 -0.8030  0.3073  0.9316
 3646SOL    HW119529   7.652   5.484   3.517 -0.5705  0.3621 -2.0839
 3646SOL    HW219530   7.489   5.481   3.525 -0.5701 -0.8264 -2.3499
 3647SOL     OW19531   9.246   5.730   0.921 -0.1138  0.0613  0.7403
 3647SOL    HW119532   9.195   5.666   0.864 -1.1590  0.7996  0.8406
 3647SOL    HW219533   9.278   5.684   1.004  1.6140 -1.0873 -0.5245
 3649SOL     OW19534   7.095   9.145   2.772 -0.0910 -0.6002 -0.1327
 3649SOL    HW119535   7.153   9.066   2.750  0.8512 -0.1697  0.7907
 3649SOL    HW219536   7.141   9.202   2.840 -1.4188 -0.0281  0.2876
 3650SOL     OW19537   6.731   7.232   2.468  0.3737  1.0797 -0.1854
 3650SOL    HW119538   6.747   7.231   2.369  1.7702  1.9460  0.0137
 3650SOL    HW219539   6.759   7.144   2.507 -0.7024  0.5291 -0.6227
 3652SOL     OW19540   4.913   3.640   1.633 -0.2634  0.3590  0.1902
 3652SOL    HW119541   4.989   3.637   1.568  1.2448 -0.5551  1.9451
 3652SOL    HW219542   4.860   3.723   1.619  1.5309  1.3980 -0.5443
 3653SOL     OW19543   0.144   1.693   0.662 -0.1802  0.3278  0.2329
 3653SOL    HW119544   0.170   1.634   0.738  1.1389  0.3908 -0.1465
 3653SOL    HW219545   0.059   1.660   0.620  1.7964 -2.7800 -1.5121
 3654SOL     OW19546   6.084   0.365   1.609 -0.4760  0.3457 -0.4784
 3654SOL    HW119547   6.101   0.321   1.697  2.1834 -0.2597 -1.2522
 3654SOL    HW219548   5.986   0.376   1.596 -0.9487 -0.3967  2.1450
 3655SOL     OW19549   1.911   1.269   1.776  0.0190 -0.5097 -0.0329
 3655SOL    HW119550   1.842   1.197   1.766  0.1561 -0.3001 -3.0327
 3655SOL    HW219551   2.001   1.232   1.751  0.4842  0.0746  0.7477
 3659SOL     OW19552   9.265   1.549   1.246 -0.5833 -0.3586 -0.1907
 3659SOL    HW119553   9.275   1.510   1.155 -1.9810 -0.4668 -0.2983
 3659SOL    HW219554   9.189   1.505   1.294 -0.1915  0.0557  0.8329
 3660SOL     OW19555   0.131   0.108   3.981 -0.1797  0.6282 -0.1033
 3660SOL    HW119556   0.199   0.081   3.913  0.0562  0.4749  0.1884
 3660SOL    HW219557   0.163   0.189   4.030  0.2273  0.0015  0.6737
 3661SOL     OW19558   1.814   8.483   1.911  0.0944  0.0054  0.4396
 3661SOL    HW119559   1.885   8.553   1.917 -0.8000  0.7629  3.4185
 3661SOL    HW219560   1.814   8.430   1.996 -0.7269 -2.1338 -0.8867
 3662SOL     OW19561   9.962   1.503   3.339 -0.3328 -0.3155 -0.6946
 3662SOL    HW119562   9.939   1.551   3.424 -0.6483 -2.4195  0.4284
 3662SOL    HW219563   9.887   1.441   3.314 -0.5291  0.7230 -2.8731
 3663SOL     OW19564   7.860   9.186   4.021 -0.5968  0.2764 -0.0981
 3663SOL    HW119565   7.923   9.176   3.944 -0.8391  1.3278 -0.4371
 3663SOL    HW219566   7.776   9.134   4.002 -0.4198  0.0611 -0.2917
 3664SOL     OW19567   4.257   0.980   1.796 -0.0179 -0.6263  0.0851
 3664SOL    HW119568   4.177   1.036   1.819  0.5988  1.2352 -2.1776
 3664SOL    HW219569   4.231   0.883   1.801 -1.8220 -0.1158  1.4385
 3665SOL     OW19570   7.389   6.985   3.729 -1.0982  0.6967 -0.3424
 3665SOL    HW119571   7.362   7.078   3.754  1.7601  1.7261 -0.8824
 3665SOL    HW219572   7.449   6.988   3.650  0.7878 -1.4322  0.9569
 3666SOL     OW19573   8.308   1.287   3.656  0.1953 -0.2458 -0.4059
 3666SOL    HW119574   8.290   1.373   3.702  0.2633 -0.3123 -0.2562
 3666SOL    HW219575   8.237   1.220   3.679  0.2460 -0.2889 -0.3744
 3667SOL     OW19576   6.957   7.320   2.237  0.2869 -0.9111 -0.1460
 3667SOL    HW119577   6.917   7.408   2.264  0.6114 -1.2270  1.4067
 3667SOL    HW219578   6.894   7.273   2.175 -1.9039 -1.4947  2.4217
 3668SOL     OW19579   3.050   9.150   4.422 -0.1288  0.0293  0.3130
 3668SOL    HW119580   3.122   9.081   4.421 -0.3648 -0.2107 -0.7162
 3668SOL    HW219581   3.076   9.224   4.484  0.1633 -0.9362  1.3678
 3669SOL     OW19582   1.506   4.407   1.323  0.1058 -0.0702  0.5208
 3669SOL    HW119583   1.601   4.432   1.341  0.1412  0.0149  0.2175
 3669SOL    HW219584   1.501   4.346   1.244  0.1415 -2.0411  1.9829
 3671SOL     OW19585   0.633   6.428   3.645 -0.2292 -0.2832 -0.0920
 3671SOL    HW119586   0.601   6.369   3.719 -0.2575  0.4294  0.4714
 3671SOL    HW219587   0.671   6.372   3.572 -0.9347 -1.0377  0.1078
 3674SOL     OW19588   5.324   7.144   2.609 -0.3998 -0.5501  0.2160
 3674SOL    HW119589   5.245   7.136   2.670  0.3163  2.5291  1.6383
 3674SOL    HW219590   5.313   7.225   2.551  1.0511 -0.9073 -0.5933
 3675SOL     OW19591   9.995   6.068   2.306 -0.7320 -0.2222 -0.1089
 3675SOL    HW119592  10.066   6.000   2.323 -0.5979  0.0338  0.3724
 3675SOL    HW219593   9.914   6.046   2.361 -0.1513  0.8381  1.2146
 3676SOL     OW19594   2.667   5.462   3.739  0.2847 -0.0935  0.4692
 3676SOL    HW119595   2.712   5.529   3.679  2.5881 -1.6644  0.3888
 3676SOL    HW219596   2.620   5.394   3.683 -0.6326  0.4948  0.5211
 3677SOL     OW19597   9.454   3.983   4.185 -0.2190  0.2339 -0.7908
 3677SOL    HW119598   9.455   3.966   4.283 -0.1475 -1.8961 -1.1398
 3677SOL    HW219599   9.382   3.928   4.142 -0.2067  1.0994 -1.9395
 3678SOL     OW19600   7.833   3.169   0.950 -0.6677  0.1048  0.7015
 3678SOL    HW119601   7.858   3.097   1.016  2.2907  1.7822  1.5203
 3678SOL    HW219602   7.842   3.133   0.857 -0.6415 -1.0013  1.1174
 3679SOL     OW19603   2.488   9.504   1.986  0.9012  0.4410  0.0859
 3679SOL    HW119604   2.474   9.600   1.961 -0.3332  0.1787 -0.2734
 3679SOL    HW219605   2.486   9.448   1.903 -3.5264 -0.4819  0.6712
 3680SOL     OW19606   1.829   9.193   1.657 -0.9664  0.0551 -0.2648
 3680SOL    HW119607   1.863   9.213   1.749  3.4751 -1.7551 -1.3922
 3680SOL    HW219608   1.853   9.267   1.595 -1.6760  0.0788 -0.5211
 3681SOL     OW19609   2.450   0.022   3.746 -0.4285  0.2991  0.4527
 3681SOL    HW119610   2.375   0.081   3.717  0.3218  1.2359  0.4060
 3681SOL    HW219611   2.442  -0.067   3.699  0.2526  1.4728 -1.9380
 3682SOL     OW19612   0.157   6.928   0.384 -0.2724  0.4798  0.0828
 3682SOL    HW119613   0.233   6.921   0.447 -1.1602 -1.1917  1.0098
 3682SOL    HW219614   0.177   6.874   0.302  0.7574  2.4168 -0.9775
 3683SOL     OW19615   5.429   8.314   3.276 -0.0714 -0.2956  0.5976
 3683SOL    HW119616   5.456   8.403   3.314  0.2263 -0.8363  1.6688
 3683SOL    HW219617   5.497   8.245   3.302  0.2868 -0.6220 -1.1572
 3684SOL     OW19618   0.451   9.176   0.529 -0.0714 -0.2316  0.5314
 3684SOL    HW119619   0.404   9.186   0.617  1.0195 -0.9291  1.2003
 3684SOL    HW219620   0.538   9.130   0.543  0.4204  0.2728 -0.8333
 3685SOL     OW19621   3.445   0.083   0.239  0.0956 -0.2514  0.2733
 3685SOL    HW119622   3.486   0.066   0.149  0.8809  0.4529  0.4916
 3685SOL    HW219623   3.446  -0.001   0.293  1.3045 -0.2310  0.2898
 3686SOL     OW19624   1.156   9.859   3.840  0.2050 -0.6903  0.3872
 3686SOL    HW119625   1.143   9.760   3.839 -1.0743 -0.5293  1.2291
 3686SOL    HW219626   1.079   9.904   3.795  0.9172 -0.0791 -0.2492
 3687SOL     OW19627   3.126   4.556   2.758  0.5818  0.2845 -0.0918
 3687SOL    HW119628   3.215   4.563   2.802  1.2594  2.3560 -1.7118
 3687SOL    HW219629   3.054   4.581   2.824  1.1000 -2.2568  1.4673
 3689SOL     OW19630   9.945   1.599   1.428 -0.1327  0.7199 -0.3051
 3689SOL    HW119631   9.860   1.557   1.458  0.2549  0.3438  0.2497
 3689SOL    HW219632   9.963   1.680   1.483  0.4103  0.2112  0.2655
 3690SOL     OW19633   6.907   7.833   1.727 -0.4564 -0.1169  0.3044
 3690SOL    HW119634   6.984   7.862   1.783  2.7470 -0.7451 -3.5658
 3690SOL    HW219635   6.902   7.733   1.728  0.9058 -0.2399 -2.0556
 3691SOL     OW19636   1.104   3.318   1.692  0.2340 -0.2588 -0.1335
 3691SOL    HW119637   1.160   3.399   1.714 -1.0182  0.2049  1.5034
 3691SOL    HW219638   1.144   3.269   1.615  3.0086 -0.0688  1.1550
 3692SOL     OW19639   2.988   9.883   0.585  0.3302 -0.0603 -0.3658
 3692SOL    HW119640   2.960   9.954   0.520  0.2505  0.1016 -0.1546
 3692SOL    HW219641   2.911   9.861   0.645  0.8371  0.7965  0.5901
 3693SOL     OW19642   7.954   0.632   1.130 -0.8450  0.7274  0.0175
 3693SOL    HW119643   7.967   0.635   1.031 -1.7848 -3.9792 -0.3783
 3693SOL    HW219644   7.866   0.674   1.153 -1.6825 -0.2033 -1.4294
 3694SOL     OW19645   8.364   2.399   0.716 -0.0687 -0.1541  0.1745
 3694SOL    HW119646   8.418   2.319   0.690  1.5305  1.1500 -0.6042
 3694SOL    HW219647   8.422   2.480   0.718 -1.3952  0.8101  2.1587
 3695SOL     OW19648   8.088   9.147   0.875 -0.5263  0.1199 -0.7189
 3695SOL    HW119649   8.048   9.164   0.785  0.1107  1.6860 -0.7261
 3695SOL    HW219650   8.019   9.108   0.936 -1.1321 -0.3413 -1.7022
 3696SOL     OW19651   9.010   4.359   2.899  0.1770  0.2498 -0.0628
 3696SOL    HW119652   8.963   4.275   2.869 -0.8621  0.3762  1.1609
 3696SOL    HW219653   9.008   4.364   2.999  0.9862  1.3076 -0.1003
 3697SOL     OW19654   9.078   9.490   1.461  0.4010  0.3692 -0.3107
 3697SOL    HW119655   9.077   9.421   1.534 -0.3536 -0.9560 -1.5750
 3697SOL    HW219656   9.172   9.521   1.448  1.1490 -2.2194 -1.4074
 3699SOL     OW19657   4.836   1.133   3.482 -0.0938  0.8172 -0.0163
 3699SOL    HW119658   4.883   1.053   3.444  0.4141 -0.5874  3.3184
 3699SOL    HW219659   4.900   1.210   3.488  1.3784 -0.5506  2.8165
 3700SOL     OW19660   3.206   1.025   3.619  0.1880 -0.1230  0.4742
 3700SOL    HW119661   3.148   0.956   3.662 -0.3237 -0.4451 -0.6999
 3700SOL    HW219662   3.292   0.983   3.591 -0.6971 -0.6506 -1.5357
 3701SOL     OW19663   2.729   2.871   3.030  0.2235 -0.4311 -0.4743
 3701SOL    HW119664   2.721   2.854   2.931 -0.3455  0.7389 -0.6277
 3701SOL    HW219665   2.641   2.854   3.074 -0.0562  1.0051 -0.4635
 3702SOL     OW19666   2.392   2.433   0.809 -0.0599 -0.0197  0.5888
 3702SOL    HW119667   2.447   2.517   0.808 -0.2771  0.1298  0.9529
 3702SOL    HW219668   2.306   2.448   0.761  0.0489 -0.1389  0.3539
 3703SOL     OW19669   6.225   6.798   3.989 -0.1154  0.5227 -0.1093
 3703SOL    HW119670   6.156   6.861   3.955 -0.1548 -0.2987 -1.6083
 3703SOL    HW219671   6.281   6.843   4.059 -2.8064  0.8883  1.8769
 3704SOL     OW19672   3.710   1.017   2.401 -0.0182 -0.3945  0.2894
 3704SOL    HW119673   3.763   0.941   2.364 -0.9662 -0.3762 -1.1365
 3704SOL    HW219674   3.730   1.100   2.349 -2.0129 -0.5549 -0.7778
 3706SOL     OW19675   4.286   4.290   0.306  0.1887 -0.5882  0.5880
 3706SOL    HW119676   4.362   4.304   0.242  0.4145 -0.0476  0.9683
 3706SOL    HW219677   4.321   4.253   0.392 -0.0599 -0.9407  0.5360
 3707SOL     OW19678   4.131   3.095   2.311  0.4166 -0.5338 -0.1075
 3707SOL    HW119679   4.128   2.998   2.336 -0.5172 -0.0562  1.6701
 3707SOL    HW219680   4.221   3.132   2.334 -0.8832  0.2726  4.1753
 3710SOL     OW19681   3.459   2.945   1.117 -0.4980 -0.3318 -0.3363
 3710SOL    HW119682   3.495   3.038   1.123  0.7217 -0.8760  1.1938
 3710SOL    HW219683   3.385   2.933   1.183 -0.1575 -0.6676 -0.0153
 3711SOL     OW19684   9.923   9.728   3.114 -0.1587 -0.7023  0.1048
 3711SOL    HW119685   9.949   9.825   3.114 -0.0862 -0.7210  0.2158
 3711SOL    HW219686   9.839   9.716   3.165 -0.4821 -0.6153 -0.4035
 3712SOL     OW19687   4.168   6.102   1.344 -0.4044 -0.0468 -0.2359
 3712SOL    HW119688   4.131   6.080   1.253 -0.9145  1.8503 -0.4925
 3712SOL    HW219689   4.093   6.125   1.406  0.1355  1.3170 -0.0751
 3714SOL     OW19690   3.405   1.493   2.178 -0.2366  0.2676  0.8132
 3714SOL    HW119691   3.328   1.557   2.187  1.2670  2.4184 -0.9464
 3714SOL    HW219692   3.470   1.508   2.252  0.2783  1.0760  0.2181
 3715SOL     OW19693   8.843   5.148   1.833 -0.3636 -0.0584 -0.2923
 3715SOL    HW119694   8.930   5.103   1.852  0.0145 -0.2034 -2.2214
 3715SOL    HW219695   8.783   5.142   1.913  1.7173  0.8224  1.3586
 3716SOL     OW19696   1.859   7.978   1.126  0.7083 -0.1359  0.1393
 3716SOL    HW119697   1.858   7.950   1.030  0.4470  0.4654 -0.0396
 3716SOL    HW219698   1.828   7.903   1.183  0.3552 -0.3271 -0.3006
 3717SOL     OW19699   4.548   7.289   1.617  0.1280 -0.2114  0.4762
 3717SOL    HW119700   4.631   7.322   1.573 -0.4381  0.2300 -0.2845
 3717SOL    HW219701   4.529   7.343   1.699  0.7097 -0.4540  0.7674
 3719SOL     OW19702   5.174   0.225   0.551  0.4345 -0.2593 -0.3879
 3719SOL    HW119703   5.094   0.182   0.592  0.4403  0.3471  0.2817
 3719SOL    HW219704   5.221   0.280   0.620  2.5079 -2.1065 -0.2764
 3720SOL     OW19705   8.793   9.084   1.280  0.6392 -0.5222 -0.2155
 3720SOL    HW119706   8.822   9.179   1.275 -0.7377 -0.0394  0.7698
 3720SOL    HW219707   8.703   9.078   1.324  0.5455 -2.2410 -0.5844
 3721SOL     OW19708   0.277   5.539   0.464  0.3822 -0.6573  0.1614
 3721SOL    HW119709   0.356   5.583   0.422  1.4605  0.8153  3.6173
 3721SOL    HW219710   0.208   5.608   0.485  0.1398 -1.2818  1.4382
 3722SOL     OW19711   5.259   9.094   4.197 -0.0224 -0.1156 -0.4504
 3722SOL    HW119712   5.269   9.146   4.282 -1.9254 -0.3565 -0.0500
 3722SOL    HW219713   5.239   9.156   4.122 -0.1794 -0.0764 -0.3767
 3723SOL     OW19714   3.527   1.340   3.111 -0.2805  0.1518  0.3960
 3723SOL    HW119715   3.458   1.412   3.105 -0.3856  0.2628  2.3789
 3723SOL    HW219716   3.618   1.380   3.108 -0.3156  0.1864 -0.2969
 3725SOL     OW19717   3.183   6.728   1.473 -0.4344  0.3733  0.2415
 3725SOL    HW119718   3.148   6.656   1.414 -0.6121 -0.4010  1.2690
 3725SOL    HW219719   3.212   6.688   1.560 -0.2889  1.5070  0.7245
 3727SOL     OW19720   9.962   3.875   3.024 -0.2792  0.3441  0.3590
 3727SOL    HW119721   9.927   3.908   2.936 -0.1251  1.3200  0.6574
 3727SOL    HW219722   9.885   3.844   3.080 -0.2874 -1.2891 -0.5143
 3728SOL     OW19723   1.289   1.378   1.592 -0.6005 -0.1222 -0.0774
 3728SOL    HW119724   1.204   1.340   1.628 -1.3206  0.3520 -1.2408
 3728SOL    HW219725   1.277   1.399   1.495  1.0620 -0.7157 -0.4293
 3729SOL     OW19726   8.474   3.657   4.209  0.3063 -0.1073  0.4702
 3729SOL    HW119727   8.499   3.594   4.282 -0.0334  0.7851  1.3792
 3729SOL    HW219728   8.387   3.702   4.232  0.0672 -0.0054 -0.6030
 3730SOL     OW19729   9.358   8.827   1.698 -0.9094  0.1058 -0.2018
 3730SOL    HW119730   9.332   8.923   1.691 -0.3869  0.4738  2.4197
 3730SOL    HW219731   9.280   8.773   1.728 -0.4906  0.1602  1.0212
 3731SOL     OW19732   9.161   6.248   0.367 -0.2025  0.4935  0.1408
 3731SOL    HW119733   9.192   6.158   0.399 -0.1447  1.0369  1.6794
 3731SOL    HW219734   9.098   6.287   0.434  0.6256  2.0761  0.0235
 3732SOL     OW19735   9.256   5.622   3.613 -0.1475  0.2057  0.0037
 3732SOL    HW119736   9.169   5.602   3.569  0.6923  1.0598 -2.0938
 3732SOL    HW219737   9.275   5.553   3.683 -1.0775 -1.7090 -1.6109
 3733SOL     OW19738   1.647   8.602   3.959  0.2375  0.5423  0.0902
 3733SOL    HW119739   1.691   8.548   3.888 -0.9333  1.6123 -1.4837
 3733SOL    HW219740   1.587   8.670   3.917  0.2228  1.8043  2.0748
 3734SOL     OW19741   7.207   0.707   3.678 -0.6964  0.0112  0.2984
 3734SOL    HW119742   7.274   0.640   3.647 -1.6427 -0.1954 -1.3766
 3734SOL    HW219743   7.217   0.791   3.624 -1.4383  0.1500  0.3747
 3735SOL     OW19744   7.095   0.542   4.228  0.1980  0.3186  0.3835
 3735SOL    HW119745   7.046   0.629   4.224 -0.7554 -0.1953  0.8659
 3735SOL    HW219746   7.194   0.560   4.226  0.0347  1.4811  1.6575
 3736SOL     OW19747   9.353   4.320   0.302  0.3874  0.9270  0.0040
 3736SOL    HW119748   9.348   4.420   0.304  2.5652  1.0488  1.6406
 3736SOL    HW219749   9.332   4.284   0.393 -0.0834 -0.0977 -0.5060
 3737SOL     OW19750   7.416   0.128   0.587  0.3398 -0.6908 -0.1507
 3737SOL    HW119751   7.451   0.205   0.535  0.8539 -0.9035 -0.1281
 3737SOL    HW219752   7.325   0.104   0.555  0.3130 -0.2810 -0.3781
 3738SOL     OW19753   9.156   6.887   0.180 -0.0232 -0.0546 -0.0800
 3738SOL    HW119754   9.122   6.956   0.244 -0.1988  1.0620 -1.3611
 3738SOL    HW219755   9.188   6.932   0.096  0.2688 -1.4958 -0.7536
 3739SOL     OW19756   0.096   5.915   2.823  0.8773 -0.2313  0.2972
 3739SOL    HW119757   0.173   5.946   2.767  0.9373  0.3509  0.6970
 3739SOL    HW219758   0.083   5.817   2.810  1.5477 -0.2927  0.0571
 3741SOL     OW19759   2.963   6.233   2.447  0.2021  0.0212  0.3191
 3741SOL    HW119760   2.888   6.187   2.400  1.0370  0.5390 -1.5708
 3741SOL    HW219761   2.933   6.264   2.537 -1.3511 -1.2318  0.2445
 3742SOL     OW19762   1.321   5.331   0.554  0.7918 -0.2558  0.0072
 3742SOL    HW119763   1.412   5.360   0.524  0.6953 -0.2523 -0.2851
 3742SOL    HW219764   1.288   5.259   0.493  0.4725 -0.0435 -0.0688
 3743SOL     OW19765   8.543   0.976   2.424  0.0670 -0.0363 -0.2750
 3743SOL    HW119766   8.446   0.982   2.448  0.6595 -1.2252  2.6262
 3743SOL    HW219767   8.594   1.044   2.477  1.3277 -2.1571  1.2871
 3744SOL     OW19768   2.859   4.805   1.195  0.5237 -1.2171 -0.4353
 3744SOL    HW119769   2.904   4.854   1.270 -2.5128 -1.1168  1.3862
 3744SOL    HW219770   2.914   4.725   1.170  0.9800 -1.9397  2.7146
 3745SOL     OW19771   2.823   9.193   2.454 -0.3159  0.3809  0.3801
 3745SOL    HW119772   2.731   9.158   2.468 -0.2492  0.9834  2.5933
 3745SOL    HW219773   2.888   9.117   2.455 -0.7539 -0.0315 -1.0834
 3746SOL     OW19774   0.714   2.542   0.817 -0.2125  0.3600 -0.2831
 3746SOL    HW119775   0.766   2.496   0.745 -1.4153 -0.6777 -0.5023
 3746SOL    HW219776   0.777   2.593   0.876  1.1204 -1.3817 -0.1661
 3747SOL     OW19777   0.039   6.884   2.016 -0.2214 -0.0567 -0.7013
 3747SOL    HW119778   0.101   6.825   2.068 -3.3113 -1.0468  1.9581
 3747SOL    HW219779  -0.039   6.831   1.984 -2.6088  2.3516  0.9604
 3749SOL     OW19780   4.661   3.284   2.195  0.0730 -0.3785  0.4786
 3749SOL    HW119781   4.761   3.282   2.185 -0.0734 -1.0463 -1.0829
 3749SOL    HW219782   4.621   3.215   2.134 -1.3736  0.3102  0.6430
 3750SOL     OW19783   4.940   7.078   2.998 -0.1095 -0.5738 -0.3506
 3750SOL    HW119784   4.876   7.059   3.073 -0.0137  0.7407  0.0786
 3750SOL    HW219785   4.888   7.095   2.914 -0.4412  2.3006  0.3943
 3751SOL     OW19786   3.237   9.816   0.522  0.5886  0.2124 -0.3883
 3751SOL    HW119787   3.146   9.853   0.539 -0.1175 -0.5851 -2.2909
 3751SOL    HW219788   3.273   9.776   0.606 -0.0933  2.0432  0.8045
 3752SOL     OW19789   0.932   7.981   3.853 -0.2971 -0.2705  0.2010
 3752SOL    HW119790   0.984   8.062   3.881  1.3240 -0.4028 -2.2617
 3752SOL    HW219791   0.982   7.932   3.782 -1.2074 -3.5183  1.6647
 3753SOL     OW19792   1.287   0.114   1.606 -0.1175  0.2684  0.1652
 3753SOL    HW119793   1.218   0.052   1.643 -2.3415  1.5627 -1.6620
 3753SOL    HW219794   1.269   0.130   1.509  2.2454  1.3653 -0.1403
 3754SOL     OW19795   4.730   8.046   4.263 -0.5440 -0.0574  0.4855
 3754SOL    HW119796   4.744   8.133   4.215 -0.0360  1.3046  3.0279
 3754SOL    HW219797   4.636   8.016   4.250 -0.5215  0.4482 -1.0432
 3755SOL     OW19798   3.821   8.617   0.780 -0.0307 -0.3928 -0.1943
 3755SOL    HW119799   3.850   8.635   0.874  2.2007 -2.7774 -0.3796
 3755SOL    HW219800   3.738   8.561   0.781  0.5604 -1.2805  0.3808
 3757SOL     OW19801   2.832   6.478   0.061 -0.2706  0.1297 -0.4905
 3757SOL    HW119802   2.815   6.488  -0.037  1.5305 -1.5157 -1.0118
 3757SOL    HW219803   2.929   6.495   0.081 -0.5502  0.1404  0.9464
 3758SOL     OW19804   5.078   7.457   2.797  0.3225 -0.0640 -0.1371
 3758SOL    HW119805   5.080   7.548   2.756 -0.6451  0.1591  0.2808
 3758SOL    HW219806   5.030   7.462   2.885  0.5814 -0.9091  0.0526
 3759SOL     OW19807   5.089   1.087   2.051 -0.0253 -0.0158  0.1505
 3759SOL    HW119808   5.104   0.995   2.014 -1.9295 -0.7885  1.1664
 3759SOL    HW219809   5.082   1.153   1.976  2.2069 -0.5491 -0.5499
 3760SOL     OW19810   4.552   6.203   1.511 -0.3938  0.0445 -0.5402
 3760SOL    HW119811   4.551   6.283   1.572 -1.9642  1.4167 -2.2781
 3760SOL    HW219812   4.646   6.188   1.478  0.1203  0.4724  0.6883
 3761SOL     OW19813   1.676   8.575   4.255 -0.1100  0.7493  0.0916
 3761SOL    HW119814   1.776   8.574   4.259 -0.1327 -0.6479  0.2956
 3761SOL    HW219815   1.647   8.567   4.160 -0.0304  1.0373  0.0427
 3762SOL     OW19816   8.618   9.988   1.054 -0.5112  0.0067 -0.6959
 3762SOL    HW119817   8.595   9.963   1.148  1.3329 -0.4795 -0.3604
 3762SOL    HW219818   8.651  10.082   1.052 -0.3649 -0.0482 -0.8354
 3764SOL     OW19819   4.086   2.942   0.953 -0.5361  0.3892  0.2606
 3764SOL    HW119820   4.168   2.912   0.905 -0.3689  2.5336 -0.8372
 3764SOL    HW219821   4.033   2.862   0.981 -0.2897 -0.9614 -2.8968
 3765SOL     OW19822   9.392   3.678   4.131 -0.0601 -0.1097 -0.2026
 3765SOL    HW119823   9.420   3.663   4.226 -0.7047  3.3301  0.5656
 3765SOL    HW219824   9.293   3.664   4.123 -0.2255  0.9758 -0.0683
 3766SOL     OW19825   3.698   0.695   2.390  0.2174  0.0927 -0.1718
 3766SOL    HW119826   3.666   0.610   2.347  0.2903 -0.7315  1.3578
 3766SOL    HW219827   3.624   0.734   2.445  0.6251  0.2732  0.2473
 3767SOL     OW19828   2.530   4.316   4.297  0.1733 -0.0091 -0.1382
 3767SOL    HW119829   2.481   4.401   4.278  1.7998  0.9361 -0.2225
 3767SOL    HW219830   2.555   4.313   4.394 -0.3243 -0.6432 -0.0226
 3768SOL     OW19831   2.896   7.237   0.558 -0.3594  0.5246 -0.5257
 3768SOL    HW119832   2.813   7.283   0.528 -0.0803  1.4609  0.1144
 3768SOL    HW219833   2.915   7.159   0.498 -1.4837  0.5325 -0.8986
 3769SOL     OW19834   3.052   4.677   4.220 -0.0489  0.1410 -0.3397
 3769SOL    HW119835   3.117   4.726   4.278 -1.0787 -0.7282  1.5761
 3769SOL    HW219836   3.100   4.609   4.166  0.5103 -1.3392  1.9598
 3770SOL     OW19837   1.120   4.376   0.653  0.1746 -0.5765  0.0286
 3770SOL    HW119838   1.161   4.287   0.673  0.2062 -1.1779 -2.5618
 3770SOL    HW219839   1.193   4.443   0.640  0.3229 -1.1670 -2.3974
 3771SOL     OW19840   5.811   0.261   0.597  0.1604 -0.5298 -0.2092
 3771SOL    HW119841   5.778   0.354   0.583  0.6247 -0.2703  0.3658
 3771SOL    HW219842   5.899   0.249   0.550 -0.2966 -0.9282 -0.9605
 3772SOL     OW19843   6.663   8.249   2.430 -0.1911 -0.0194 -0.2444
 3772SOL    HW119844   6.707   8.243   2.520  1.4630 -1.0776 -1.1143
 3772SOL    HW219845   6.714   8.311   2.371 -0.2389 -0.7348 -1.0479
 3773SOL     OW19846   3.920   0.344   0.942 -0.1502 -0.1377 -0.0484
 3773SOL    HW119847   3.906   0.378   0.849 -0.1815 -0.8223 -0.2973
 3773SOL    HW219848   3.838   0.296   0.973 -1.1059  2.3364  1.3205
 3774SOL     OW19849   3.991   7.619   2.884 -0.8591  0.1769  0.4374
 3774SOL    HW119850   3.897   7.610   2.915 -1.8632 -3.1364 -3.1224
 3774SOL    HW219851   3.993   7.671   2.798  0.7273  1.2146  1.0721
 3776SOL     OW19852   7.777   7.951   2.643  0.3658  0.5172  0.8654
 3776SOL    HW119853   7.807   7.902   2.561 -0.3768  1.7403 -0.1499
 3776SOL    HW219854   7.713   7.893   2.694  0.4285 -0.0523  0.3173
 3777SOL     OW19855   2.427   0.859   0.452  0.1630 -0.6161  0.1804
 3777SOL    HW119856   2.356   0.924   0.481 -0.4572 -1.2173  0.0157
 3777SOL    HW219857   2.516   0.891   0.484 -0.2587 -0.1899  0.9444
 3778SOL     OW19858   1.110   3.848   3.357 -0.5220  0.1225 -0.2279
 3778SOL    HW119859   1.128   3.754   3.327  0.6318  0.3690 -0.3166
 3778SOL    HW219860   1.013   3.869   3.343 -0.6819 -0.8886 -0.6821
 3780SOL     OW19861   5.561   7.296   1.888 -0.1420  0.1352 -0.0893
 3780SOL    HW119862   5.512   7.316   1.972  2.3347  0.2641  1.3567
 3780SOL    HW219863   5.556   7.198   1.869  0.6214 -0.1403  1.0827
 3781SOL     OW19864   7.461   8.249   2.417  0.2608  0.3964  0.0580
 3781SOL    HW119865   7.442   8.163   2.464 -0.1454 -0.4203 -1.5663
 3781SOL    HW219866   7.441   8.326   2.479 -0.4554 -0.6346  1.1358
 3782SOL     OW19867   9.766   6.922   4.236  0.0544 -0.2056  0.0508
 3782SOL    HW119868   9.718   7.007   4.257 -0.3593 -0.4590  0.1501
 3782SOL    HW219869   9.842   6.910   4.299 -2.4935 -2.0492  2.9118
 3783SOL     OW19870   1.370   1.452   0.468  0.5425 -0.1989  0.4337
 3783SOL    HW119871   1.326   1.542   0.472  2.8778  0.9123  2.6168
 3783SOL    HW219872   1.315   1.386   0.519 -0.4522  0.3190  0.0402
 3784SOL     OW19873   4.772   3.158   0.785  0.0603 -0.5334 -0.0797
 3784SOL    HW119874   4.800   3.164   0.689 -2.3688 -0.5516 -0.8103
 3784SOL    HW219875   4.731   3.069   0.802 -1.8882  0.4205  0.3164
 3785SOL     OW19876   6.575   6.719   3.523  0.3466 -0.2070 -0.7256
 3785SOL    HW119877   6.547   6.745   3.430 -1.3020  0.4116 -0.0818
 3785SOL    HW219878   6.601   6.801   3.574  0.7033 -0.4858 -0.4608
 3787SOL     OW19879  -0.005   0.366   3.826  0.0539  0.6839 -0.4131
 3787SOL    HW119880   0.006   0.267   3.824 -1.5273  0.5011 -0.3552
 3787SOL    HW219881   0.085   0.409   3.837  0.5324 -0.8033  1.7410
 3788SOL     OW19882   9.881   3.377   2.961 -0.1890  0.4383  0.3062
 3788SOL    HW119883   9.906   3.350   3.054 -1.9247  0.8762  0.9218
 3788SOL    HW219884   9.915   3.309   2.897 -0.9931 -1.1142  1.4832
 3789SOL     OW19885   9.184   3.485   2.688  0.3087 -0.6390 -0.8692
 3789SOL    HW119886   9.277   3.484   2.650  0.9018 -1.8691  0.5767
 3789SOL    HW219887   9.160   3.579   2.714  1.0301 -0.2690 -1.4913
 3790SOL     OW19888   1.564   4.781   4.270 -0.3816 -0.0167  0.4396
 3790SOL    HW119889   1.490   4.796   4.335  0.5195  0.2875  1.4099
 3790SOL    HW219890   1.560   4.849   4.197 -1.0664 -0.0244  0.4710
 3791SOL     OW19891   9.727   7.469   3.332 -0.1756 -0.4747  0.2663
 3791SOL    HW119892   9.821   7.434   3.328 -0.3643 -0.8465 -1.6561
 3791SOL    HW219893   9.673   7.425   3.260 -1.7645 -0.0903  1.2178
 3792SOL     OW19894   6.768   9.856   2.016 -0.6146  0.3619 -0.4651
 3792SOL    HW119895   6.754   9.760   2.039 -1.2623  0.5186 -0.2114
 3792SOL    HW219896   6.761   9.867   1.916  1.3946 -0.1734 -0.6906
 3793SOL     OW19897   5.378   7.948   2.940  0.5534  0.1441  0.3711
 3793SOL    HW119898   5.343   7.856   2.954 -1.0439  0.5816 -0.6008
 3793SOL    HW219899   5.354   8.005   3.019 -0.5337  0.3105 -0.0629
 3796SOL     OW19900   1.440   2.835   3.826  0.4892 -0.2577  0.0778
 3796SOL    HW119901   1.390   2.749   3.832  0.5283 -0.1925  1.6653
 3796SOL    HW219902   1.538   2.816   3.819  0.5002 -0.3501  0.4624
 3797SOL     OW19903   9.137   5.223   2.418  1.0166 -0.4780 -0.2440
 3797SOL    HW119904   9.228   5.255   2.391  0.7543  0.1442 -0.4131
 3797SOL    HW219905   9.072   5.245   2.345  0.7611 -1.0841 -0.2014
 3798SOL     OW19906   5.505   0.265   3.112  0.0021 -0.2407  0.3479
 3798SOL    HW119907   5.462   0.354   3.098  0.5083 -0.3425 -2.1330
 3798SOL    HW219908   5.604   0.277   3.117 -0.0795 -0.3880  2.6470
 3800SOL     OW19909   0.116   6.716   2.249  0.2013  0.2341 -0.2257
 3800SOL    HW119910   0.213   6.694   2.244 -0.1748 -0.9819 -3.2610
 3800SOL    HW219911   0.064   6.647   2.199 -2.1565  1.3593  0.6137
 3801SOL     OW19912   1.813   3.728   1.521  0.4481 -0.0515  0.0966
 3801SOL    HW119913   1.856   3.751   1.608 -1.1071 -0.5459  1.0252
 3801SOL    HW219914   1.795   3.812   1.469 -1.6423  0.5608  1.7434
 3802SOL     OW19915   7.072   8.609   1.791 -0.0591 -0.8497  0.0910
 3802SOL    HW119916   7.009   8.674   1.835  0.3311 -0.7246  0.4748
 3802SOL    HW219917   7.039   8.588   1.699  1.5071  2.4338 -1.3053
 3803SOL     OW19918   5.072   0.400   3.715 -0.2588  0.1534 -0.1459
 3803SOL    HW119919   5.042   0.495   3.709  1.1573  0.6946  1.1503
 3803SOL    HW219920   5.109   0.382   3.805 -1.1749 -1.8524 -0.1465
 3804SOL     OW19921   9.433   3.508   0.049 -0.0121  0.3019  0.1082
 3804SOL    HW119922   9.363   3.533  -0.017 -1.0918 -0.0431  1.1007
 3804SOL    HW219923   9.519   3.490   0.002 -0.9499 -0.6346 -1.2845
 3805SOL     OW19924   6.659   9.961   2.740 -0.4092  0.0224  0.5328
 3805SOL    HW119925   6.706  10.048   2.748 -0.7354  0.2733 -0.2262
 3805SOL    HW219926   6.615   9.938   2.827 -0.7355  0.8511  0.5896
 3806SOL     OW19927   1.023   4.824   4.229 -0.1026 -0.5464 -0.5244
 3806SOL    HW119928   1.116   4.831   4.265  0.4439  0.3133 -2.0594
 3806SOL    HW219929   1.019   4.866   4.139 -2.2592  0.4615  0.0144
 3807SOL     OW19930   0.476   3.422   0.918 -0.6259 -0.1203  0.0971
 3807SOL    HW119931   0.457   3.503   0.861 -1.1757 -0.2952  0.0266
 3807SOL    HW219932   0.505   3.347   0.859  1.2342  0.4102  0.2875
 3808SOL     OW19933   0.387   6.483   3.958  0.5098  0.1536  0.2784
 3808SOL    HW119934   0.306   6.520   3.911  1.2195  1.2377 -0.0937
 3808SOL    HW219935   0.386   6.511   4.054 -0.2346 -0.9408  0.6068
 3809SOL     OW19936   9.686   4.617   1.443  0.2015 -0.5184  0.2937
 3809SOL    HW119937   9.633   4.679   1.385  0.0937 -2.1851 -1.4290
 3809SOL    HW219938   9.707   4.662   1.530 -0.5230  1.6419 -0.6290
 3811SOL     OW19939   9.882   2.699   0.158  0.1878 -0.7942 -0.3496
 3811SOL    HW119940   9.924   2.769   0.217 -1.6467 -0.4522  0.5808
 3811SOL    HW219941   9.917   2.709   0.065 -1.0210  2.2593 -0.5337
 3812SOL     OW19942   7.763   6.840   3.169  0.3605  0.1758 -0.2302
 3812SOL    HW119943   7.718   6.927   3.190  2.5270  1.3865 -0.4052
 3812SOL    HW219944   7.696   6.766   3.171 -1.1727  1.5704  1.8356
 3813SOL     OW19945   9.790   1.659   4.006 -0.2724 -0.1518 -0.2074
 3813SOL    HW119946   9.826   1.569   4.031 -2.6849 -0.7183  1.4342
 3813SOL    HW219947   9.694   1.650   3.979 -0.4293  1.8931 -0.4209
 3814SOL     OW19948   0.296   4.954   2.960 -0.4487  0.7110 -0.0139
 3814SOL    HW119949   0.238   4.902   2.897 -1.7595 -0.1798  1.8745
 3814SOL    HW219950   0.390   4.923   2.951 -0.4944  1.0795 -2.0116
 3815SOL     OW19951   8.122   6.842   1.229 -0.3159 -0.1615  0.0306
 3815SOL    HW119952   8.097   6.869   1.137  1.5883  0.9285 -0.1921
 3815SOL    HW219953   8.198   6.776   1.225  0.3232  0.5141  0.8348
 3816SOL     OW19954   9.563   0.322   4.132 -0.7492  0.4221  0.0838
 3816SOL    HW119955   9.620   0.399   4.104 -1.0988  0.7366  0.2432
 3816SOL    HW219956   9.476   0.325   4.083  0.0426 -1.0457 -1.4944
 3817SOL     OW19957   7.718   7.815   3.895 -0.1659  0.1171  0.5330
 3817SOL    HW119958   7.648   7.812   3.823 -0.5676  0.2466  0.9183
 3817SOL    HW219959   7.699   7.891   3.957  2.0139  2.0785 -1.0849
 3818SOL     OW19960   6.545   8.599   3.144 -0.1541  0.2179 -0.1309
 3818SOL    HW119961   6.533   8.512   3.193 -0.2056 -0.0914 -0.6940
 3818SOL    HW219962   6.627   8.594   3.088  0.2314  0.7877  0.3807
 3819SOL     OW19963   9.055   7.938   1.381 -0.2393  0.3253 -0.0695
 3819SOL    HW119964   9.150   7.940   1.349 -0.2338  0.0797 -0.0633
 3819SOL    HW219965   9.028   7.844   1.402  0.5094  0.7283  2.9083
 3820SOL     OW19966   2.028   1.560   0.405  0.0840  0.0988 -0.1562
 3820SOL    HW119967   2.067   1.617   0.477  2.1238 -0.1170 -1.0376
 3820SOL    HW219968   1.990   1.477   0.444  3.1523 -1.0500  0.4892
 3821SOL     OW19969   0.470   6.962   2.384  0.0693  0.4699  0.3205
 3821SOL    HW119970   0.448   6.877   2.336 -0.8970  0.9367 -0.0742
 3821SOL    HW219971   0.520   7.023   2.323  3.1378 -0.8501  1.4163
 3824SOL     OW19972   4.919   4.292   0.874  0.0725  0.1523 -0.1846
 3824SOL    HW119973   4.882   4.367   0.929 -2.3424 -2.1644  1.4892
 3824SOL    HW219974   5.017   4.306   0.859 -0.0799  2.9312  1.2320
 3825SOL     OW19975   3.050   3.043   3.663  0.6975  0.1959  0.0102
 3825SOL    HW119976   3.064   2.956   3.616 -0.6453  1.2836 -2.4817
 3825SOL    HW219977   2.951   3.060   3.672  0.9559  1.4919  0.4431
 3826SOL     OW19978   8.908   9.255   2.127  0.1050  0.0113 -0.0547
 3826SOL    HW119979   9.007   9.249   2.136  0.3769 -1.2136 -3.1316
 3826SOL    HW219980   8.878   9.348   2.150  2.1242  0.7449 -0.2879
 3828SOL     OW19981   8.729   4.931   2.312  0.6249  0.1857 -0.4841
 3828SOL    HW119982   8.679   4.963   2.231 -0.1836  1.1600  0.3810
 3828SOL    HW219983   8.807   4.875   2.283 -1.4625 -2.1204 -1.8339
 3829SOL     OW19984   5.330   9.631   2.046 -0.0207 -0.1727  0.3706
 3829SOL    HW119985   5.320   9.533   2.034  1.7343 -0.3106 -0.0241
 3829SOL    HW219986   5.354   9.651   2.141 -1.6735 -0.0114  0.7701
 3830SOL     OW19987   0.754   9.439   0.060 -0.0254  0.1025  0.0070
 3830SOL    HW119988   0.699   9.356   0.068 -0.8561  0.6298 -0.1982
 3830SOL    HW219989   0.821   9.442   0.134 -0.4733 -0.3795  0.4331
 3832SOL     OW19990   0.958   3.865   2.157  0.5733 -0.1661  0.1532
 3832SOL    HW119991   1.041   3.904   2.197 -0.1670  0.2754  1.2816
 3832SOL    HW219992   0.889   3.936   2.147  0.1230 -0.6511 -0.2435
 3833SOL     OW19993   1.840   4.172   0.250 -0.0515 -0.0275  0.0187
 3833SOL    HW119994   1.742   4.174   0.269 -0.1699 -0.2587 -0.5715
 3833SOL    HW219995   1.860   4.230   0.171  0.4905  1.1929  1.0467
 3835SOL     OW19996   8.133   2.343   1.525  0.4081 -0.5764 -0.5742
 3835SOL    HW119997   8.218   2.302   1.558 -0.8750 -1.6927  1.5065
 3835SOL    HW219998   8.056   2.306   1.578 -1.2012  1.6603 -1.2761
 3836SOL     OW19999   1.441   0.181   3.853 -0.2678 -0.2467 -0.0462
 3836SOL    HW120000   1.406   0.224   3.936  0.6912  0.6111 -0.0728
 3836SOL    HW220001   1.485   0.094   3.876 -0.2869 -0.1642  0.3017
 3837SOL     OW20002   8.470   0.971   0.310  0.1357 -0.0185  0.3074
 3837SOL    HW120003   8.441   0.996   0.217  1.3521  0.6330  0.0926
 3837SOL    HW220004   8.519   0.884   0.307 -1.3396 -0.8797  0.6032
 3838SOL     OW20005   9.116   5.681   2.263 -0.3065  0.2600 -0.3977
 3838SOL    HW120006   9.088   5.737   2.184  0.5758 -1.5130 -1.9911
 3838SOL    HW220007   9.194   5.625   2.238 -1.4987 -2.0958  1.0159
 3839SOL     OW20008   1.404   2.020   1.476  0.9351 -0.5835 -0.0685
 3839SOL    HW120009   1.457   1.935   1.475  0.1153 -1.1043 -0.2859
 3839SOL    HW220010   1.312   2.001   1.510  0.9518  0.3525  0.5085
 3840SOL     OW20011   6.563   7.319   1.882 -0.0594 -1.2189 -0.2922
 3840SOL    HW120012   6.521   7.410   1.893 -0.3713 -1.3053 -0.7650
 3840SOL    HW220013   6.497   7.249   1.910  0.2336 -1.2952  0.2094
 3841SOL     OW20014   3.308   2.885   4.137  0.0074 -0.2880  0.1299
 3841SOL    HW120015   3.327   2.822   4.212 -0.7025 -1.0803 -0.3313
 3841SOL    HW220016   3.209   2.898   4.129  0.1038  0.1681 -0.3538
 3842SOL     OW20017   7.799   1.461   0.676 -0.1522 -0.0340  0.2065
 3842SOL    HW120018   7.859   1.502   0.744 -0.0750 -0.8999  0.6657
 3842SOL    HW220019   7.710   1.507   0.678  0.2693  0.7890  0.0031
 3843SOL     OW20020   9.691   6.317   0.611  0.2215  0.2479  0.3409
 3843SOL    HW120021   9.606   6.266   0.599  0.0519  0.7604 -0.6624
 3843SOL    HW220022   9.742   6.316   0.525 -0.2897  2.6974 -0.0046
 3844SOL     OW20023   9.819   8.674   1.158 -0.6465  0.1685 -0.5757
 3844SOL    HW120024   9.754   8.598   1.160 -0.9679  0.4282 -1.3970
 3844SOL    HW220025   9.772   8.759   1.182 -0.9053  0.5724 -2.4338
 3845SOL     OW20026   2.253   3.965   1.261  0.7201  0.2810 -0.3249
 3845SOL    HW120027   2.261   3.932   1.167 -0.6838 -1.8631  0.2501
 3845SOL    HW220028   2.305   3.905   1.322 -1.5036 -0.7091  0.6951
 3846SOL     OW20029   8.014   8.103   4.124  0.0551 -0.3347 -0.0026
 3846SOL    HW120030   7.966   8.111   4.037 -1.9290 -1.2773  0.9951
 3846SOL    HW220031   8.020   8.193   4.167 -0.3211 -0.1224 -0.3939
 3847SOL     OW20032   7.669   8.876   1.288 -0.4409  0.3826 -0.1496
 3847SOL    HW120033   7.745   8.936   1.312  0.0760 -0.2892 -0.0982
 3847SOL    HW220034   7.690   8.783   1.317 -1.5285  0.2976  0.3873
 3849SOL     OW20035   5.861   4.111   0.177 -0.4535  0.3484 -0.2287
 3849SOL    HW120036   5.875   4.111   0.276 -3.4755 -0.0383  0.2480
 3849SOL    HW220037   5.834   4.020   0.147  1.4167  0.2227 -1.5846
 3850SOL     OW20038   4.408   2.676   0.771 -0.3355  0.4481 -0.4249
 3850SOL    HW120039   4.372   2.747   0.831 -1.4552  0.2564 -0.8544
 3850SOL    HW220040   4.480   2.714   0.713  0.3812  0.7593  0.6730
 3851SOL     OW20041   8.496   6.696   1.722 -0.2437 -0.1117 -0.5451
 3851SOL    HW120042   8.564   6.679   1.650  0.6034 -0.3512  0.3114
 3851SOL    HW220043   8.537   6.750   1.795 -1.1770  0.3390 -0.3468
 3852SOL     OW20044   0.548   2.741   1.502  0.3220 -0.5625 -0.5446
 3852SOL    HW120045   0.558   2.688   1.418  0.5355 -0.3893 -0.6321
 3852SOL    HW220046   0.519   2.834   1.478  1.0691 -0.3064 -0.4843
 3853SOL     OW20047   9.989   5.818   4.265  0.5523  0.5292 -0.2280
 3853SOL    HW120048  10.051   5.893   4.243  0.9550 -0.2611 -1.8730
 3853SOL    HW220049  10.021   5.734   4.221  0.9789 -1.0045  2.8351
 3854SOL     OW20050   8.199   5.833   3.218  0.4032 -0.0491 -0.4233
 3854SOL    HW120051   8.269   5.904   3.224 -1.3261  1.8641 -2.1513
 3854SOL    HW220052   8.162   5.830   3.125 -1.6702 -1.1411  0.4081
 3855SOL     OW20053   2.108   9.967   4.198  0.0729  0.1434 -0.4128
 3855SOL    HW120054   2.111   9.915   4.283  1.4202 -0.3213 -0.7296
 3855SOL    HW220055   2.201   9.990   4.170 -0.3905  0.7737 -1.4700
 3856SOL     OW20056   0.951   1.385   3.506 -0.6988  0.2107  0.1012
 3856SOL    HW120057   0.957   1.462   3.570  2.5718  3.2269 -3.5847
 3856SOL    HW220058   0.861   1.385   3.463 -1.0641  1.4462  0.8215
 3857SOL     OW20059   1.584   2.843   3.354  0.2903  0.2534 -0.0382
 3857SOL    HW120060   1.495   2.797   3.360  0.0294  0.8756  1.1828
 3857SOL    HW220061   1.587   2.916   3.422  2.3096 -0.7382  0.9610
 3858SOL     OW20062   9.165   7.373   0.684  1.0201 -0.2646  0.8704
 3858SOL    HW120063   9.263   7.355   0.697  0.8688 -1.0619  0.8952
 3858SOL    HW220064   9.150   7.472   0.688  2.0569 -0.0238 -0.7761
 3859SOL     OW20065   5.066   8.724   3.316 -0.3130 -0.3389 -0.7321
 3859SOL    HW120066   5.098   8.637   3.280  1.9487  0.1736 -0.0855
 3859SOL    HW220067   5.078   8.795   3.247  1.8709  0.2204  0.1829
 3860SOL     OW20068   9.356   5.494   2.205  0.6150 -0.4851  0.5736
 3860SOL    HW120069   9.376   5.413   2.260  1.4797 -0.4436  0.3311
 3860SOL    HW220070   9.438   5.522   2.156 -0.1681 -0.6018 -0.8446
 3861SOL     OW20071   4.244   2.949   1.931  0.1332 -0.1731 -0.4082
 3861SOL    HW120072   4.289   3.011   1.867  0.3967 -0.2882 -0.3334
 3861SOL    HW220073   4.157   2.989   1.961  0.8312  0.6626  0.5097
 3862SOL     OW20074   1.145   4.240   4.005 -0.0701 -0.9076 -0.4966
 3862SOL    HW120075   1.212   4.292   3.952  0.4173 -1.8995 -0.8613
 3862SOL    HW220076   1.171   4.242   4.102 -0.2633 -0.1627 -0.4564
 3863SOL     OW20077   2.513   4.276   0.383  0.0503 -0.7152 -0.0384
 3863SOL    HW120078   2.595   4.314   0.426 -0.5059  0.8058 -0.3000
 3863SOL    HW220079   2.537   4.194   0.331  1.5172  0.1283 -0.7043
 3864SOL     OW20080   8.760   9.503   2.187  0.0869  0.4455 -0.1532
 3864SOL    HW120081   8.737   9.452   2.270  0.8433 -2.6250 -1.7471
 3864SOL    HW220082   8.676   9.537   2.145 -0.5780 -0.6825  0.2200
 3867SOL     OW20083   8.656   0.343   1.734  0.8225 -0.3215  0.3640
 3867SOL    HW120084   8.655   0.398   1.818 -1.5692  0.2088  0.0090
 3867SOL    HW220085   8.735   0.370   1.679 -0.9035  3.6855 -0.3475
 3868SOL     OW20086   3.962   3.061   0.764  0.4221  0.4789 -0.3576
 3868SOL    HW120087   4.026   3.126   0.723 -0.1614  0.4104 -1.3944
 3868SOL    HW220088   4.009   3.011   0.837  1.4433  0.6982 -0.8443
 3869SOL     OW20089   9.015   4.873   1.121 -0.1778 -0.0868  0.2763
 3869SOL    HW120090   9.106   4.831   1.112 -1.2808 -2.5420  0.1867
 3869SOL    HW220091   9.019   4.946   1.189  2.0010  0.2486 -0.1656
 3870SOL     OW20092   1.012   0.237   0.563  0.0871  1.0176  0.7947
 3870SOL    HW120093   1.043   0.223   0.657 -0.3908 -0.0418  0.7994
 3870SOL    HW220094   1.066   0.181   0.501 -0.2566  0.9564  0.5470
 3871SOL     OW20095   9.379   1.579   0.864  0.8366 -0.3450 -0.4190
 3871SOL    HW120096   9.314   1.521   0.911  0.4459  0.6456  0.2839
 3871SOL    HW220097   9.332   1.660   0.827  1.2360 -0.8112 -2.0127
 3872SOL     OW20098   9.878   9.334   2.962  0.2456  0.3181 -0.4042
 3872SOL    HW120099   9.904   9.237   2.968 -0.4027  0.1288 -0.5557
 3872SOL    HW220100   9.913   9.383   3.041  0.3761 -0.0919 -0.2071
 3873SOL     OW20101   8.598   4.817   2.914 -0.4751 -0.9207 -0.2360
 3873SOL    HW120102   8.594   4.780   3.007 -0.2513 -1.4738 -0.4403
 3873SOL    HW220103   8.685   4.790   2.871 -0.0765  0.2932 -0.2087
 3875SOL     OW20104   2.249   0.207   1.414  0.0321 -0.3905 -0.4888
 3875SOL    HW120105   2.270   0.169   1.324 -0.6731 -1.4910 -0.1902
 3875SOL    HW220106   2.192   0.289   1.402 -1.1574 -1.2691 -1.0086
 3876SOL     OW20107   4.950   2.461   4.008  0.1172  0.2945 -0.4513
 3876SOL    HW120108   4.963   2.377   3.954 -0.3839 -0.8701  1.1995
 3876SOL    HW220109   4.883   2.444   4.080  0.8373  1.8077  0.5919
 3877SOL     OW20110   1.848   3.323   0.526 -0.4811  0.2437  0.0976
 3877SOL    HW120111   1.882   3.346   0.435  0.2205 -0.4516  0.1801
 3877SOL    HW220112   1.869   3.228   0.547 -3.1472 -0.4587 -0.1447
 3878SOL     OW20113   8.706   0.002   1.600  0.0218 -0.5145 -0.0737
 3878SOL    HW120114   8.683   0.063   1.524  2.1027  1.0687  0.5304
 3878SOL    HW220115   8.645   0.021   1.678 -0.8666 -0.8415 -0.6838
 3879SOL     OW20116   9.964   9.141   2.178 -0.2160 -0.1016 -0.2362
 3879SOL    HW120117   9.933   9.235   2.196 -1.9760 -0.7009 -0.0384
 3879SOL    HW220118   9.936   9.082   2.253 -1.8081 -1.3596 -1.7762
 3880SOL     OW20119   2.153   5.767   0.993  0.3021  0.3655 -0.0904
 3880SOL    HW120120   2.063   5.807   0.974  0.7546  1.6869  0.4509
 3880SOL    HW220121   2.187   5.721   0.911 -1.7784 -2.0141  0.3201
 3881SOL     OW20122   4.168   8.698   1.433  0.7025 -0.8375  0.2268
 3881SOL    HW120123   4.180   8.795   1.414  3.4154 -0.6505  2.5950
 3881SOL    HW220124   4.217   8.645   1.364 -0.6899 -0.5705 -1.0031
 3882SOL     OW20125   1.611   5.521   1.689  0.5671 -0.2605 -0.2910
 3882SOL    HW120126   1.649   5.431   1.668 -1.6055 -1.9461  2.7080
 3882SOL    HW220127   1.648   5.553   1.776 -0.8330  0.4922  0.0270
 3883SOL     OW20128   0.489   3.984   1.213  0.0293  0.0157 -0.7427
 3883SOL    HW120129   0.551   3.905   1.214 -0.1313 -0.1091 -0.7804
 3883SOL    HW220130   0.399   3.956   1.245 -0.0899  0.1355 -0.9803
 3884SOL     OW20131   7.504   0.803   2.462  0.6609 -0.0340 -0.5863
 3884SOL    HW120132   7.583   0.780   2.519  1.0129  1.5155 -0.4226
 3884SOL    HW220133   7.504   0.901   2.443 -2.8384  0.5714  1.8972
 3885SOL     OW20134   9.087   3.417   0.431  0.1826 -0.0236  0.0261
 3885SOL    HW120135   9.167   3.477   0.431  0.6032 -0.5797  0.2109
 3885SOL    HW220136   9.115   3.325   0.457 -0.2426 -0.5961 -1.5121
 3886SOL     OW20137   9.013   0.955   0.342 -0.2330 -0.4721 -0.4506
 3886SOL    HW120138   8.992   0.862   0.370  0.4286 -0.5136 -0.0678
 3886SOL    HW220139   9.055   0.954   0.251 -0.6361 -0.5041 -0.6380
 3887SOL     OW20140   4.906   5.158   1.045 -0.0793 -0.6854  0.2408
 3887SOL    HW120141   4.839   5.121   1.109  0.9917 -0.2417  1.6540
 3887SOL    HW220142   4.867   5.237   0.997  0.1242  0.9062  2.6174
 3889SOL     OW20143   4.411   1.588   3.827  0.1642  0.7309 -0.1543
 3889SOL    HW120144   4.392   1.681   3.860 -1.0746  0.8217 -1.1084
 3889SOL    HW220145   4.394   1.583   3.729  1.3870 -0.2039 -0.3282
 3891SOL     OW20146   5.492   8.066   3.726 -0.4973 -0.7780  0.0694
 3891SOL    HW120147   5.453   8.143   3.676 -0.7400 -0.6720  0.4188
 3891SOL    HW220148   5.491   7.984   3.668 -0.1386 -0.4960 -0.3398
 3892SOL     OW20149   5.596   0.143   4.108  0.3877 -0.0834  0.3100
 3892SOL    HW120150   5.641   0.233   4.105  0.8469 -0.3366 -0.8129
 3892SOL    HW220151   5.536   0.133   4.028 -0.3792 -0.4155  0.9183
 3893SOL     OW20152   2.902   4.667   0.215 -0.0061 -0.0229 -0.2153
 3893SOL    HW120153   2.815   4.646   0.258  0.6448 -0.6466  0.8057
 3893SOL    HW220154   2.891   4.746   0.154 -1.5836 -0.9320 -1.1409
 3894SOL     OW20155   8.185   6.856   2.546 -0.1443  0.1933  0.4596
 3894SOL    HW120156   8.103   6.884   2.597 -0.8062 -0.6301 -0.1406
 3894SOL    HW220157   8.168   6.865   2.448  0.0783 -1.0583  0.2964
 3898SOL     OW20158   1.204   9.615   0.337 -0.3622 -0.6059  0.3296
 3898SOL    HW120159   1.247   9.681   0.399  1.4470  0.6908 -2.2018
 3898SOL    HW220160   1.236   9.523   0.360  4.5043  0.3633 -1.8612
 3899SOL     OW20161   6.574   7.997   3.271 -0.2919  0.4618 -0.5195
 3899SOL    HW120162   6.577   7.903   3.306  0.4423 -0.2017 -2.3448
 3899SOL    HW220163   6.666   8.028   3.250 -0.5225  1.6493  0.1824
 3900SOL     OW20164   3.003   5.047   4.313  0.3011  0.0061 -0.0401
 3900SOL    HW120165   3.031   5.141   4.331 -1.3844  1.0277 -2.4851
 3900SOL    HW220166   3.050   5.014   4.231  1.0983 -1.4000  0.9715
 3901SOL     OW20167   7.753   9.848   0.532 -0.6227  0.1025  0.0445
 3901SOL    HW120168   7.678   9.892   0.582  0.1325 -0.0220  1.3188
 3901SOL    HW220169   7.833   9.907   0.532 -0.3131 -0.3132 -0.1784
 3902SOL     OW20170   7.825   8.867   2.268 -0.1698  0.0300 -0.4467
 3902SOL    HW120171   7.880   8.814   2.204 -0.3661 -0.7496  0.0181
 3902SOL    HW220172   7.850   8.964   2.262  1.7969 -0.3968  0.2829
 3903SOL     OW20173   1.017   2.506   3.889 -0.1743 -0.2551  0.0883
 3903SOL    HW120174   1.117   2.501   3.894 -0.1838 -1.3926 -0.8127
 3903SOL    HW220175   0.983   2.440   3.823 -1.6472 -0.9453  1.4876
 3904SOL     OW20176   0.722   7.841   2.749 -0.0687 -0.0362 -0.6038
 3904SOL    HW120177   0.634   7.818   2.792 -1.2215  0.7972 -2.4867
 3904SOL    HW220178   0.748   7.934   2.773  0.9013 -0.6768  0.9054
 3905SOL     OW20179   0.813   8.667   0.473  0.0433  0.4562  1.1595
 3905SOL    HW120180   0.829   8.579   0.430 -1.7165 -0.1182  1.6176
 3905SOL    HW220181   0.780   8.732   0.404 -1.7592 -0.1688  1.3865
 3906SOL     OW20182   9.475   8.487   3.407 -0.1392 -0.1065  0.0270
 3906SOL    HW120183   9.518   8.556   3.464  0.3119 -0.6865  0.3872
 3906SOL    HW220184   9.496   8.506   3.311  0.7306 -0.2511  0.1812
 3907SOL     OW20185   2.073   2.907   2.482  0.5179  0.0556  0.3077
 3907SOL    HW120186   2.101   2.996   2.447 -0.4894  0.9824  1.8155
 3907SOL    HW220187   2.133   2.879   2.557 -0.0785  0.1656  0.8322
 3908SOL     OW20188   2.523   7.467   2.598 -0.3681 -0.0587 -0.3576
 3908SOL    HW120189   2.578   7.421   2.529 -0.0592 -0.3290  0.0679
 3908SOL    HW220190   2.499   7.402   2.671 -1.0109  0.1238 -0.3986
 3912SOL     OW20191   8.992   3.159   4.422 -0.0516  0.6374  0.2788
 3912SOL    HW120192   8.934   3.095   4.372  0.0654 -0.6423  1.7306
 3912SOL    HW220193   9.088   3.138   4.403  0.0393 -1.0531  2.4257
 3913SOL     OW20194   2.521   7.218   1.439 -0.0270 -0.5500 -0.0504
 3913SOL    HW120195   2.548   7.138   1.493 -0.5681  0.3973  1.6494
 3913SOL    HW220196   2.423   7.215   1.423 -0.5677  1.2530  2.5689
 3914SOL     OW20197   1.161   7.756   4.144  0.3424  0.6932  0.4987
 3914SOL    HW120198   1.215   7.777   4.063  1.0936 -2.2445  0.1817
 3914SOL    HW220199   1.215   7.775   4.226  0.6362  0.9088  0.2553
 3915SOL     OW20200   7.425   2.042   2.528  0.1887 -0.0403  0.5675
 3915SOL    HW120201   7.489   1.980   2.574  1.2169  0.6281  0.0295
 3915SOL    HW220202   7.419   2.128   2.579  2.0863  1.0877 -1.0761
 3916SOL     OW20203   7.299   7.723   3.890  0.1599 -0.4167 -0.0753
 3916SOL    HW120204   7.339   7.636   3.917  0.2380 -0.7468 -1.2221
 3916SOL    HW220205   7.244   7.710   3.807 -1.1167  0.3086  0.6437
 3917SOL     OW20206   0.534   4.330   1.510 -0.3714  0.6826 -0.1152
 3917SOL    HW120207   0.497   4.330   1.417 -1.4254  0.6427  0.2966
 3917SOL    HW220208   0.621   4.379   1.511  0.4089 -0.6381 -1.4129
 3918SOL     OW20209   5.969   7.546   2.502  0.0400  0.7776 -0.2495
 3918SOL    HW120210   6.009   7.557   2.593 -2.6270  0.5562  0.9952
 3918SOL    HW220211   5.991   7.455   2.467  0.2609  0.4958  0.6086
 3919SOL     OW20212   6.049   8.124   3.676  0.6731  0.0566 -0.0291
 3919SOL    HW120213   5.984   8.199   3.678  1.3386  0.5979  1.9859
 3919SOL    HW220214   6.128   8.149   3.619  1.0504  1.0253  0.9062
 3920SOL     OW20215   4.643   8.100   1.841 -0.6716 -0.2607  0.6970
 3920SOL    HW120216   4.691   8.025   1.887  1.0791  0.2358 -0.2775
 3920SOL    HW220217   4.680   8.112   1.749 -1.4188  1.3429  0.5839
 3923SOL     OW20218   2.630   6.499   1.525 -0.0926  0.4514 -0.0905
 3923SOL    HW120219   2.583   6.436   1.463  0.9515 -1.1220  0.6682
 3923SOL    HW220220   2.564   6.559   1.569 -0.9261  1.0935 -2.1585
 3926SOL     OW20221   8.476   9.301   2.256  0.3569  0.5835 -0.0378
 3926SOL    HW120222   8.537   9.223   2.255  0.9203  1.0228 -0.4004
 3926SOL    HW220223   8.487   9.353   2.171 -1.9078 -0.4005 -0.9747
 3927SOL     OW20224   3.343   9.228   4.169 -0.4522 -0.4056 -0.1275
 3927SOL    HW120225   3.345   9.244   4.268  0.3122  1.5050 -0.4374
 3927SOL    HW220226   3.248   9.223   4.139 -0.6997 -0.1996  0.5918
 3928SOL     OW20227   2.356   3.983   0.204  0.3316 -0.9643 -0.0903
 3928SOL    HW120228   2.338   3.967   0.301 -1.8615  0.2419 -0.2727
 3928SOL    HW220229   2.455   3.983   0.188  0.7019 -1.4914  2.0840
 3929SOL     OW20230   0.368   7.987   4.336  0.0054 -0.0625 -0.0979
 3929SOL    HW120231   0.363   8.070   4.280 -1.8393  0.1347  0.3019
 3929SOL    HW220232   0.461   7.973   4.367  0.7008  0.8465 -1.7027
 3930SOL     OW20233   8.307   4.393   0.350 -0.2724  0.1017  0.2150
 3930SOL    HW120234   8.329   4.299   0.375 -1.1786 -0.9086 -2.5513
 3930SOL    HW220235   8.218   4.394   0.304 -0.1428  2.2884  0.0008
 3931SOL     OW20236   7.372   9.904   3.004  0.2650  0.0343 -0.1611
 3931SOL    HW120237   7.405   9.939   3.091 -1.4907  1.4314 -0.0266
 3931SOL    HW220238   7.380   9.805   3.002  1.6284  0.1149  1.0258
 3932SOL     OW20239   1.579   7.476   0.613 -0.0576  0.2446 -0.1930
 3932SOL    HW120240   1.537   7.423   0.539 -0.4785  0.7962 -0.3501
 3932SOL    HW220241   1.508   7.518   0.669  0.2691  0.2685  0.2103
 3933SOL     OW20242   3.342   2.562   0.434  0.0170 -0.7872 -0.0461
 3933SOL    HW120243   3.247   2.559   0.403 -0.5062 -0.7177  1.5136
 3933SOL    HW220244   3.369   2.472   0.468  0.0806 -0.4508  0.7896
 3934SOL     OW20245   3.201   7.040   3.353  0.1985  0.8103 -0.1522
 3934SOL    HW120246   3.229   6.978   3.280 -1.2428  1.2018 -1.0474
 3934SOL    HW220247   3.267   7.115   3.359  0.9811  0.1428 -0.2306
 3936SOL     OW20248   8.259   5.809   3.488  0.6892  0.3981  0.1487
 3936SOL    HW120249   8.236   5.823   3.392 -0.1720  1.2416  0.4616
 3936SOL    HW220250   8.315   5.885   3.520  2.6223 -0.8527 -0.1817
 3937SOL     OW20251   1.192   7.960   0.808  0.0621 -0.1797  0.1564
 3937SOL    HW120252   1.117   8.025   0.818  0.6882  0.7199 -0.8736
 3937SOL    HW220253   1.158   7.877   0.762 -0.6073 -0.3640  0.9635
 3939SOL     OW20254   5.874   9.655   2.462  0.0426 -0.1862 -0.3021
 3939SOL    HW120255   5.801   9.641   2.529 -1.3738  2.4451 -1.2155
 3939SOL    HW220256   5.958   9.682   2.508 -0.6585  0.6484  0.4989
 3940SOL     OW20257   9.882   4.929   3.436  0.0599  0.6731  0.0428
 3940SOL    HW120258   9.906   4.934   3.533  0.9337  0.0963 -0.1399
 3940SOL    HW220259   9.876   4.834   3.408  0.8400  0.8359 -0.7175
 3941SOL     OW20260   3.062   7.422   1.145 -0.0813  0.2368 -0.0409
 3941SOL    HW120261   3.047   7.329   1.111  1.0412  0.0612 -0.0838
 3941SOL    HW220262   3.135   7.465   1.092  0.2167  0.7193  0.7540
 3942SOL     OW20263   6.429   7.267   2.742 -0.1957  0.6407 -0.3388
 3942SOL    HW120264   6.449   7.198   2.672  1.0035 -0.9806  1.5740
 3942SOL    HW220265   6.474   7.353   2.717  0.3130  0.0522 -1.4983
 3943SOL     OW20266   2.462   8.514   1.389 -0.7653  0.0016 -0.0147
 3943SOL    HW120267   2.489   8.563   1.306 -2.0484  1.2230  0.2698
 3943SOL    HW220268   2.519   8.545   1.466  1.1271 -1.8799 -0.6090
 3945SOL     OW20269   1.829   9.166   4.374  0.1978  0.0519 -0.1478
 3945SOL    HW120270   1.775   9.126   4.300 -0.2507 -2.3925  1.4526
 3945SOL    HW220271   1.916   9.117   4.382  1.0970  1.5985 -0.3275
 3946SOL     OW20272   2.581   5.936   2.107 -0.7249 -0.3979  0.1385
 3946SOL    HW120273   2.555   5.927   2.204 -0.3550 -0.6365  0.2197
 3946SOL    HW220274   2.680   5.926   2.099 -0.7224 -0.0692 -0.2313
 3947SOL     OW20275   2.182   2.853   0.078  0.7308  0.1436 -0.4612
 3947SOL    HW120276   2.214   2.807  -0.005  0.5814 -0.6216 -0.1076
 3947SOL    HW220277   2.243   2.830   0.154  0.4547  0.2560 -0.2049
 3948SOL     OW20278   1.418   3.385   1.619 -0.1332 -0.2490  0.3794
 3948SOL    HW120279   1.380   3.460   1.674  1.1941  1.6139 -1.1814
 3948SOL    HW220280   1.406   3.406   1.522  0.6536 -1.8744 -0.0823
 3949SOL     OW20281   8.387   0.632   1.115  0.8286  0.0399  0.4041
 3949SOL    HW120282   8.420   0.695   1.186  2.6748 -0.6683  0.2065
 3949SOL    HW220283   8.348   0.685   1.040  0.7298  0.8826  1.0410
 3950SOL     OW20284   1.834   9.494   4.164 -0.4142  0.4093 -1.0057
 3950SOL    HW120285   1.841   9.473   4.261 -1.5672  1.1557 -0.7619
 3950SOL    HW220286   1.878   9.421   4.111 -1.2566 -0.8309 -0.0060
 3951SOL     OW20287   3.444   9.501   3.447  0.2830 -0.2519 -0.1212
 3951SOL    HW120288   3.511   9.575   3.442  0.2082 -0.2673 -1.4465
 3951SOL    HW220289   3.404   9.486   3.357 -0.7518 -0.9444  0.4421
 3952SOL     OW20290   9.225   2.405   0.337  0.0858  0.1150 -0.3303
 3952SOL    HW120291   9.242   2.343   0.260 -0.2809 -2.3492  1.4967
 3952SOL    HW220292   9.141   2.457   0.319 -1.2461 -2.0501 -0.6767
 3953SOL     OW20293   0.409   2.106   4.020  0.3230  0.6648 -0.0557
 3953SOL    HW120294   0.423   2.020   3.971 -1.4877 -1.7070  3.3942
 3953SOL    HW220295   0.311   2.126   4.024  0.4508  0.9443  2.2882
 3955SOL     OW20296   6.267   0.247   2.584  0.5829 -0.2873 -0.1648
 3955SOL    HW120297   6.336   0.313   2.614 -0.2416 -0.0382  1.2519
 3955SOL    HW220298   6.312   0.161   2.560  1.4082 -0.0581  0.5195
 3957SOL     OW20299   7.916   8.118   3.319  0.1018 -0.6328  0.8901
 3957SOL    HW120300   7.872   8.031   3.337  0.2242 -0.6140  1.2750
 3957SOL    HW220301   7.849   8.192   3.326  0.0593 -0.6665  0.8423
 3958SOL     OW20302   4.649   1.704   2.841 -0.5834 -0.0849  0.1232
 3958SOL    HW120303   4.611   1.703   2.748 -0.1717  0.9781 -0.0565
 3958SOL    HW220304   4.580   1.669   2.904 -0.6134 -1.5113 -0.6641
 3959SOL     OW20305   7.966   4.855   3.278 -0.0652  0.1384 -0.3525
 3959SOL    HW120306   7.871   4.836   3.252  0.4423 -0.8936 -1.5430
 3959SOL    HW220307   7.998   4.937   3.230 -1.0612  1.8495  1.8372
 3961SOL     OW20308   1.387   4.043   1.074 -0.3140 -0.0970  0.3125
 3961SOL    HW120309   1.388   3.954   1.029  0.5296 -0.5385  1.1673
 3961SOL    HW220310   1.305   4.094   1.047 -1.4439 -1.6307  0.7668
 3966SOL     OW20311   0.107   0.141   1.543 -0.3028 -0.2444  0.9381
 3966SOL    HW120312   0.039   0.172   1.609  0.3700  1.0765  1.0288
 3966SOL    HW220313   0.192   0.194   1.555 -0.3137  0.3241 -1.2598
 3967SOL     OW20314   8.083   7.960   3.043  0.1668  0.1881  0.2761
 3967SOL    HW120315   8.122   7.983   2.954 -0.1821 -0.1857  0.0245
 3967SOL    HW220316   8.093   8.038   3.105  2.2797 -0.2830  0.5451
 3968SOL     OW20317   5.815   1.394   3.010 -0.0859  0.4267 -0.4609
 3968SOL    HW120318   5.753   1.328   2.967 -0.5977  1.1946 -0.9047
 3968SOL    HW220319   5.852   1.455   2.941 -0.1494  1.0512  0.0528
 3969SOL     OW20320   1.202   8.002   0.247  0.2281  0.5485 -0.1038
 3969SOL    HW120321   1.180   8.013   0.344  1.0881  1.9358 -0.0479
 3969SOL    HW220322   1.153   8.071   0.194  0.2004  0.1580 -0.5900
 3970SOL     OW20323   4.298   9.499   0.713  0.0446  0.6456  0.7645
 3970SOL    HW120324   4.245   9.564   0.660  0.2716  1.2654  1.2845
 3970SOL    HW220325   4.239   9.425   0.745 -0.7908  1.9640  2.3751
 3971SOL     OW20326   3.958   7.524   3.395  0.3301 -0.3810  0.0133
 3971SOL    HW120327   4.006   7.462   3.457  1.3567  0.4865  0.1031
 3971SOL    HW220328   3.961   7.617   3.433  0.0950 -0.0230 -0.8418
 3972SOL     OW20329   7.527   0.266   0.045 -0.1254  0.0088  0.1968
 3972SOL    HW120330   7.604   0.203   0.054  0.2772  0.6167  1.0934
 3972SOL    HW220331   7.519   0.321   0.129 -0.8256  0.7425 -0.3427
 3973SOL     OW20332   2.156   5.004   0.605 -0.4530  0.0232  0.1614
 3973SOL    HW120333   2.076   5.042   0.559 -0.7347 -0.0059  0.6250
 3973SOL    HW220334   2.126   4.941   0.677 -0.0389  1.3053  1.4588
 3974SOL     OW20335   8.080   3.629   3.551  0.3041  0.5494 -0.0380
 3974SOL    HW120336   8.097   3.554   3.615  0.6504  0.3206 -0.3884
 3974SOL    HW220337   8.048   3.591   3.464 -0.2589  0.8618  0.0326
 3975SOL     OW20338   3.217   3.464   3.512  0.3517  0.2643  0.1996
 3975SOL    HW120339   3.211   3.425   3.604 -0.9509 -0.4669 -0.1981
 3975SOL    HW220340   3.197   3.394   3.444 -1.3820  1.4429 -0.5457
 3977SOL     OW20341   8.419   1.976   0.254  0.1208 -0.4356 -0.0152
 3977SOL    HW120342   8.431   1.994   0.157  0.5873 -1.9011 -0.2382
 3977SOL    HW220343   8.508   1.955   0.295 -0.2196 -0.8346  0.5186
 3978SOL     OW20344   0.340   5.845   4.214 -0.0880 -0.4195  0.3281
 3978SOL    HW120345   0.350   5.806   4.122  0.3935 -1.0176  0.6295
 3978SOL    HW220346   0.286   5.929   4.209  1.0347  0.2727 -0.6993
 3979SOL     OW20347   2.251   1.410   0.319  0.3123  0.4150  0.4552
 3979SOL    HW120348   2.188   1.486   0.333 -0.2246  0.2543 -1.0468
 3979SOL    HW220349   2.344   1.446   0.304  0.1328  0.7648  0.1645
 3980SOL     OW20350   1.818   5.461   3.476  0.1689  0.2030 -0.2731
 3980SOL    HW120351   1.864   5.395   3.416  0.4853 -0.1689  0.3839
 3980SOL    HW220352   1.741   5.503   3.426 -1.3562 -2.2008 -0.0073
 3981SOL     OW20353   4.701   1.237   1.821  0.8702 -0.1784  0.0557
 3981SOL    HW120354   4.656   1.319   1.786  1.3301  0.0302 -0.0507
 3981SOL    HW220355   4.632   1.172   1.853  0.4817 -0.0162 -0.4550
 3982SOL     OW20356   8.919   7.019   2.158  0.0428  0.4020 -0.3901
 3982SOL    HW120357   8.972   7.096   2.120 -0.1260  0.6839 -0.0487
 3982SOL    HW220358   8.839   7.054   2.205  0.4734  0.0664  0.5957
 3983SOL     OW20359   1.487   2.807   1.768  0.1444  0.4745 -0.1615
 3983SOL    HW120360   1.436   2.736   1.720 -0.5074  0.6011  0.3406
 3983SOL    HW220361   1.439   2.894   1.761  0.1333  0.5336  0.5699
 3984SOL     OW20362   8.644   0.478   3.457 -0.0286 -0.0620  0.7464
 3984SOL    HW120363   8.607   0.471   3.364  0.9991 -1.4662  0.4265
 3984SOL    HW220364   8.654   0.387   3.496 -0.7124  0.5280  2.3595
 3985SOL     OW20365   2.487   3.056   0.224 -0.2387 -0.1152 -0.1375
 3985SOL    HW120366   2.450   3.145   0.198  1.2954  0.8264  0.7786
 3985SOL    HW220367   2.566   3.034   0.167  0.0041 -0.4206  0.3050
 3986SOL     OW20368   4.629   9.704   1.086  0.3097  0.6208  0.2719
 3986SOL    HW120369   4.662   9.760   1.162  1.0875  0.5641 -0.0201
 3986SOL    HW220370   4.665   9.611   1.095  1.2068  0.8776 -0.7047
 3987SOL     OW20371   5.462   6.843   3.243 -0.1204  0.6833  0.2973
 3987SOL    HW120372   5.536   6.845   3.176  0.4459 -0.6668  0.8506
 3987SOL    HW220373   5.376   6.868   3.200  0.3125  0.2316 -0.8355
 3988SOL     OW20374   1.533   3.232   0.669 -0.0861 -0.3635 -0.3056
 3988SOL    HW120375   1.521   3.247   0.571  2.8669  2.2533 -0.3249
 3988SOL    HW220376   1.498   3.311   0.720  0.3752 -0.7575  0.6325
 3989SOL     OW20377   1.370   7.644   3.456  0.3860  0.0770 -0.2065
 3989SOL    HW120378   1.343   7.721   3.514  0.2001  0.9992 -1.4976
 3989SOL    HW220379   1.350   7.558   3.502  0.0892  0.8011  1.0219
 3990SOL     OW20380   4.685   8.480   1.314  0.0447 -0.8363  0.2140
 3990SOL    HW120381   4.719   8.494   1.221 -0.2203 -0.1937  0.2133
 3990SOL    HW220382   4.598   8.432   1.312 -0.2566 -0.2820  0.1056
 3991SOL     OW20383   3.075   6.206   0.166  0.5009  0.0464  0.1468
 3991SOL    HW120384   3.088   6.303   0.186 -1.3319  0.3564 -0.0688
 3991SOL    HW220385   3.056   6.156   0.251  0.2076  0.1013  0.1161
 3992SOL     OW20386   9.639   1.856   1.176  0.1852 -0.2744  0.5949
 3992SOL    HW120387   9.688   1.913   1.242  0.9001  0.2391 -0.3638
 3992SOL    HW220388   9.678   1.870   1.085  0.3863 -2.3167  0.3508
 3993SOL     OW20389   3.643   2.255   0.776 -0.1978 -0.1002 -0.7823
 3993SOL    HW120390   3.615   2.351   0.768 -0.9362 -0.2441  0.0206
 3993SOL    HW220391   3.588   2.210   0.847  0.0777 -1.1411 -1.2193
 3994SOL     OW20392   1.111   2.038   1.891  0.2088  0.6859 -0.0797
 3994SOL    HW120393   1.185   1.995   1.839  0.0190  0.3141 -0.0416
 3994SOL    HW220394   1.139   2.046   1.987  0.3320  0.8567 -0.1279
 3995SOL     OW20395   4.315   9.338   4.421 -0.4327  0.2712 -0.7649
 3995SOL    HW120396   4.412   9.358   4.433 -0.2214 -2.0739  1.9157
 3995SOL    HW220397   4.303   9.239   4.407 -2.5927  0.1441  1.5982
 3996SOL     OW20398   0.548   7.018   0.926  0.2875  0.0927  0.1683
 3996SOL    HW120399   0.573   7.029   0.830  1.5391 -0.0234  0.4839
 3996SOL    HW220400   0.468   7.076   0.946 -1.5577 -1.8115 -1.5482
 3997SOL     OW20401   3.092   5.710   0.969 -0.4806 -0.4389 -0.4695
 3997SOL    HW120402   3.051   5.799   0.988 -0.7772 -0.6665 -0.0118
 3997SOL    HW220403   3.021   5.640   0.968 -0.0906 -0.8656  0.5165
 3999SOL     OW20404   2.362   2.597   1.689  0.0396 -0.4185 -0.1127
 3999SOL    HW120405   2.410   2.626   1.606 -0.2958  0.2188 -0.0900
 3999SOL    HW220406   2.386   2.659   1.764 -1.2402  0.2441 -0.2332
 4000SOL     OW20407   2.529   9.827   0.067  0.4355 -0.3319 -0.2209
 4000SOL    HW120408   2.516   9.892   0.142 -0.5307 -1.8328  0.9314
 4000SOL    HW220409   2.609   9.770   0.085  1.4260  0.6738 -1.3486
 4001SOL     OW20410   0.356   5.163   2.150  0.7859  0.1789  0.4696
 4001SOL    HW120411   0.260   5.166   2.177  0.1851 -0.9565 -1.4317
 4001SOL    HW220412   0.402   5.088   2.196  0.6840  0.5055  1.1105
 4003SOL     OW20413   9.583   1.144   4.376 -0.0651  0.3891 -0.5195
 4003SOL    HW120414   9.527   1.223   4.350 -0.5094 -0.0431 -0.8905
 4003SOL    HW220415   9.534   1.060   4.353  1.0650 -0.0023 -1.5417
 4005SOL     OW20416   1.584   3.886   2.342 -0.0840  0.0168 -0.5669
 4005SOL    HW120417   1.663   3.837   2.305 -0.6828 -1.7411  0.4568
 4005SOL    HW220418   1.553   3.954   2.275 -0.6035 -2.5171 -2.9692
 4006SOL     OW20419   9.010   7.201   3.660  0.6246  0.0542 -0.3420
 4006SOL    HW120420   8.969   7.269   3.599  1.0244  0.5575 -0.0505
 4006SOL    HW220421   8.992   7.109   3.624 -3.4596  0.0802  1.3748
 4007SOL     OW20422   8.078   5.723   2.247 -0.0683  0.7334 -0.0899
 4007SOL    HW120423   8.142   5.695   2.175  0.8745  0.3597  0.8965
 4007SOL    HW220424   8.031   5.642   2.283 -0.8695  0.9702 -0.5846
 4008SOL     OW20425   9.802   9.503   0.257  0.1905  0.1078  0.4511
 4008SOL    HW120426   9.716   9.475   0.213 -0.2370 -0.2877  1.5236
 4008SOL    HW220427   9.839   9.426   0.310  1.2956  0.2254 -0.1410
 4009SOL     OW20428   1.669   9.859   2.931  0.2281  0.5658  0.3334
 4009SOL    HW120429   1.618   9.920   2.871  0.1040 -0.0479 -0.1901
 4009SOL    HW220430   1.605   9.813   2.993 -0.0061 -0.9443 -0.9769
 4011SOL     OW20431   2.548   9.392   0.486  1.0021  0.7933  0.1727
 4011SOL    HW120432   2.615   9.320   0.469  1.0129  0.8690 -0.1196
 4011SOL    HW220433   2.508   9.421   0.399 -0.4319 -0.2268  0.4594
 4013SOL     OW20434   7.525   7.948   1.265 -0.5866  0.1952  0.5671
 4013SOL    HW120435   7.458   7.904   1.325  0.8366 -1.7646  0.7769
 4013SOL    HW220436   7.617   7.936   1.304  0.2661 -0.3232 -1.5154
 4016SOL     OW20437   1.699   7.073   1.117  0.2478  0.2619  0.2988
 4016SOL    HW120438   1.765   7.108   1.049 -2.0798 -1.0230 -2.7452
 4016SOL    HW220439   1.624   7.138   1.126  0.3576  0.2358  1.3674
 4017SOL     OW20440   5.519   9.977   1.181 -0.5579  0.7562  0.5473
 4017SOL    HW120441   5.614   9.966   1.209 -0.5346  4.0731  2.0419
 4017SOL    HW220442   5.461   9.982   1.262 -2.3626 -3.3681 -0.3758
 4018SOL     OW20443   6.149   0.448   3.883 -0.2925  0.3357 -0.5241
 4018SOL    HW120444   6.154   0.411   3.975 -0.8931  0.4993 -0.4225
 4018SOL    HW220445   6.143   0.373   3.817 -1.9121  0.2393 -0.2940
 4019SOL     OW20446   6.495   8.449   1.582 -0.6162  0.4924 -0.1830
 4019SOL    HW120447   6.505   8.538   1.537 -0.7892  0.8841  0.5412
 4019SOL    HW220448   6.402   8.441   1.618 -1.0060 -0.5326 -1.4002
 4020SOL     OW20449   8.338   7.846   3.978 -0.4094 -0.3520 -0.4927
 4020SOL    HW120450   8.251   7.825   4.023 -0.8367  0.4816 -0.9275
 4020SOL    HW220451   8.375   7.762   3.938 -0.9840 -0.7267 -0.2470
 4021SOL     OW20452   0.235   6.590   3.596 -0.5127 -0.5734  0.1444
 4021SOL    HW120453   0.164   6.567   3.529 -1.5375  2.9025 -0.0482
 4021SOL    HW220454   0.193   6.608   3.685  0.1371  0.8764  0.1817
 4023SOL     OW20455   5.589   8.330   2.961 -0.1656  0.0739 -0.7140
 4023SOL    HW120456   5.621   8.388   3.036 -2.6105  0.0584  0.3669
 4023SOL    HW220457   5.633   8.241   2.967  0.4622  0.4293  0.0836
 4025SOL     OW20458   3.615   2.226   1.922 -0.6072  0.6400  0.3508
 4025SOL    HW120459   3.561   2.162   1.977 -0.0292 -0.2543 -0.1119
 4025SOL    HW220460   3.605   2.204   1.825 -0.4990  1.3226  0.1834
 4026SOL     OW20461   7.686   9.963   2.901 -0.3717 -0.5964 -0.1665
 4026SOL    HW120462   7.696  10.032   2.972  1.4018 -0.5443 -0.4524
 4026SOL    HW220463   7.592   9.926   2.903 -1.3731  1.8888 -0.1201
 4029SOL     OW20464   2.177   3.815   1.554  0.1975  0.0613  0.1813
 4029SOL    HW120465   2.167   3.726   1.599 -0.7692  0.3537  0.5626
 4029SOL    HW220466   2.107   3.877   1.588  1.0332  1.0515  0.0966
 4030SOL     OW20467   7.308   1.450   2.532 -0.5580 -0.6830  0.0155
 4030SOL    HW120468   7.395   1.485   2.497 -1.3915  0.9903 -0.4358
 4030SOL    HW220469   7.280   1.370   2.478 -1.2426  1.1567 -2.4026
 4032SOL     OW20470   7.664   1.064   3.928 -0.1258  0.3789 -0.1792
 4032SOL    HW120471   7.682   1.160   3.950  0.8144  0.9317 -3.0984
 4032SOL    HW220472   7.722   1.005   3.985  0.2206  1.5766  0.7383
 4033SOL     OW20473   3.349   8.086   2.538 -0.2619 -0.0974  0.2694
 4033SOL    HW120474   3.330   7.994   2.570  0.7357  0.4881  2.6334
 4033SOL    HW220475   3.367   8.146   2.616  1.0003  1.6537 -1.3196
 4034SOL     OW20476   2.193   8.967   0.881 -0.1585  0.0633 -0.0281
 4034SOL    HW120477   2.102   8.934   0.852 -0.3753  0.3166  0.3656
 4034SOL    HW220478   2.193   9.067   0.883  0.0685  0.0597  0.1732
 4036SOL     OW20479   3.426   1.605   2.698 -0.0437  0.1053  0.6767
 4036SOL    HW120480   3.481   1.525   2.677  0.6638  0.6315  0.5105
 4036SOL    HW220481   3.329   1.585   2.681  0.3418  0.0222 -1.6411
 4038SOL     OW20482   9.888   2.563   1.163 -0.3094  0.1928  0.4833
 4038SOL    HW120483   9.806   2.528   1.208 -0.7289  0.3505 -0.1490
 4038SOL    HW220484   9.964   2.499   1.178 -0.7002 -0.2564  0.5595
 4040SOL     OW20485   1.965   1.315   1.279 -0.1517  0.1814  0.4444
 4040SOL    HW120486   1.957   1.353   1.187  1.3125  0.4247  0.4003
 4040SOL    HW220487   1.909   1.367   1.342  0.6852  1.5141  0.1126
 4041SOL     OW20488   3.710   6.060   1.436  0.4642  0.1541 -0.0545
 4041SOL    HW120489   3.637   6.099   1.492  2.3076  1.6753  1.3432
 4041SOL    HW220490   3.726   6.120   1.357 -0.0670 -0.4073 -0.5979
 4043SOL     OW20491   0.603   9.784   3.750  0.7085  0.2560 -0.0997
 4043SOL    HW120492   0.642   9.778   3.658  0.9835 -0.5581  0.0693
 4043SOL    HW220493   0.584   9.880   3.772 -1.3136  0.2946 -1.8327
 4044SOL     OW20494   2.842   0.045   1.484  0.4253 -0.5585 -0.1168
 4044SOL    HW120495   2.810   0.126   1.435  0.5438 -0.0666  0.6120
 4044SOL    HW220496   2.899  -0.010   1.423 -0.6331 -0.7103 -0.9808
 4045SOL     OW20497   3.390   5.850   2.207 -0.1893 -0.4835 -0.2447
 4045SOL    HW120498   3.461   5.780   2.206  1.2762  0.9567 -0.5505
 4045SOL    HW220499   3.373   5.879   2.302  0.6212  0.1018 -0.2633
 4046SOL     OW20500   4.543   3.115   3.399 -0.1847 -0.0011 -0.6391
 4046SOL    HW120501   4.518   3.120   3.302  0.3932 -0.2202 -0.8013
 4046SOL    HW220502   4.614   3.045   3.411  1.9644  2.1294 -0.5156
 4047SOL     OW20503   1.183   3.329   1.425 -0.4861 -0.1311  0.2307
 4047SOL    HW120504   1.274   3.333   1.382 -1.1862 -0.5031 -1.3457
 4047SOL    HW220505   1.147   3.421   1.434  0.4134  0.0935  1.6992
 4048SOL     OW20506   8.112   5.162   1.203 -0.2050 -0.2906 -0.3939
 4048SOL    HW120507   8.176   5.183   1.277  0.7212 -2.6763 -0.4867
 4048SOL    HW220508   8.051   5.088   1.231 -0.8330 -0.2073 -1.4976
 4049SOL     OW20509   2.250   7.244   1.480  0.2596 -0.0264 -0.5801
 4049SOL    HW120510   2.261   7.243   1.580 -1.9726  1.3788 -0.2957
 4049SOL    HW220511   2.264   7.337   1.446  1.5368 -0.6040 -1.6620
 4050SOL     OW20512   1.580   5.333   0.802 -0.2033 -0.4796 -0.1184
 4050SOL    HW120513   1.566   5.400   0.729  1.5153 -1.2556 -1.1838
 4050SOL    HW220514   1.666   5.352   0.849 -1.8054  0.6903  2.5019
 4051SOL     OW20515   6.002   0.902   3.818 -0.0039  0.4708  0.6273
 4051SOL    HW120516   5.914   0.908   3.771  0.8623  0.8567 -0.9685
 4051SOL    HW220517   6.051   0.989   3.808  0.6404  0.2016  1.3676
 4053SOL     OW20518   8.418   3.706   3.700  0.0733  0.1291  0.1200
 4053SOL    HW120519   8.506   3.675   3.736 -0.0061 -0.1210  0.1013
 4053SOL    HW220520   8.352   3.632   3.705 -0.1453  0.3263  0.1588
 4054SOL     OW20521   9.674   4.528   0.995 -0.7381 -0.1770  0.4289
 4054SOL    HW120522   9.706   4.485   0.911 -1.7708  0.5806 -0.3676
 4054SOL    HW220523   9.589   4.486   1.025 -0.6732 -0.0638  0.7864
 4055SOL     OW20524   2.374   4.603   3.560  0.0485 -0.4737 -0.6336
 4055SOL    HW120525   2.415   4.653   3.484  0.2303 -0.6135 -0.6280
 4055SOL    HW220526   2.285   4.567   3.533  0.7319 -1.7251 -1.2349
 4057SOL     OW20527   3.313   7.806   2.617  0.4611 -0.0363 -0.2517
 4057SOL    HW120528   3.302   7.768   2.525  0.9790 -1.0046  0.0838
 4057SOL    HW220529   3.390   7.762   2.662  0.2156  0.4528  0.6434
 4058SOL     OW20530   0.815   1.592   0.931 -0.4472  0.4295  0.3578
 4058SOL    HW120531   0.809   1.496   0.903 -2.7720  1.6588 -3.8461
 4058SOL    HW220532   0.911   1.620   0.938  0.2473 -1.6016 -0.7208
 4059SOL     OW20533   9.384   5.797   0.617 -0.0245  0.1041 -0.7449
 4059SOL    HW120534   9.365   5.888   0.654  0.9925 -0.5853  1.5846
 4059SOL    HW220535   9.301   5.742   0.619 -0.0832  0.2150  0.1564
 4062SOL     OW20536   4.292   3.247   2.020  0.2894 -0.7872  0.3264
 4062SOL    HW120537   4.209   3.191   2.012  0.2463 -0.5921 -0.7910
 4062SOL    HW220538   4.266   3.342   2.039  0.3030 -0.9004  0.9222
 4066SOL     OW20539   8.687   9.411   2.426  0.0327  0.0906  0.4638
 4066SOL    HW120540   8.744   9.486   2.457 -0.0014  1.1431 -1.9774
 4066SOL    HW220541   8.591   9.434   2.442 -0.0398  1.0552 -1.2818
 4067SOL     OW20542   2.074   6.302   0.040 -0.5792 -0.7890 -0.5019
 4067SOL    HW120543   2.085   6.313   0.139 -0.4870 -0.9287 -0.4969
 4067SOL    HW220544   1.977   6.309   0.017 -0.4505  0.7842 -0.5926
 4068SOL     OW20545   5.115   0.450   1.677 -0.0677 -0.5104 -0.1807
 4068SOL    HW120546   5.213   0.448   1.660  0.0237  0.5421  0.1297
 4068SOL    HW220547   5.065   0.429   1.593  0.4252 -2.7436  0.0613
 4069SOL     OW20548   9.574   4.386   3.090  0.3386 -0.0006  0.0052
 4069SOL    HW120549   9.642   4.342   3.030  1.2360 -0.7636  1.5381
 4069SOL    HW220550   9.518   4.316   3.133 -1.2751  0.6206 -1.0467
 4070SOL     OW20551   5.735   8.406   3.928  0.3469 -0.0391  0.2746
 4070SOL    HW120552   5.781   8.434   4.011 -0.2129  0.7432  0.3324
 4070SOL    HW220553   5.785   8.331   3.885  2.6908  1.9688 -0.6260
 4071SOL     OW20554   3.033   1.423   4.293 -0.2805 -0.1901 -1.0379
 4071SOL    HW120555   3.028   1.324   4.303 -0.8082 -0.0687 -0.0811
 4071SOL    HW220556   2.942   1.459   4.273 -0.1746  0.1599 -0.8976
 4073SOL     OW20557   8.570   8.145   1.703  0.0338 -0.2651  0.3211
 4073SOL    HW120558   8.570   8.084   1.623 -0.4391 -0.1211  0.2098
 4073SOL    HW220559   8.648   8.123   1.761  1.4513  0.8429 -1.1003
 4074SOL     OW20560   2.559   5.804   0.005  0.0371  0.3673 -0.2016
 4074SOL    HW120561   2.553   5.704  -0.004 -0.1724  0.3048  0.6040
 4074SOL    HW220562   2.509   5.847  -0.070  2.0321 -0.1170 -1.8482
 4075SOL     OW20563   0.652   7.322   0.951 -1.0365  0.5963  0.6958
 4075SOL    HW120564   0.585   7.378   0.903 -2.5817 -1.8878 -0.1245
 4075SOL    HW220565   0.618   7.228   0.958  2.1132 -0.5762  0.8039
 4076SOL     OW20566   0.789   5.381   2.266  0.2982  0.1622 -0.7050
 4076SOL    HW120567   0.802   5.473   2.302  2.6146 -0.4026 -0.0004
 4076SOL    HW220568   0.812   5.379   2.169  0.0739  0.3555 -0.7630
 4077SOL     OW20569   5.748   8.785   3.140 -0.4370 -0.3224 -0.0079
 4077SOL    HW120570   5.788   8.730   3.213 -0.7495  0.4843  0.7687
 4077SOL    HW220571   5.816   8.851   3.107 -0.1247 -1.0304 -0.8121
 4078SOL     OW20572   8.447   4.457   0.787 -0.0466 -0.0415 -0.0110
 4078SOL    HW120573   8.443   4.463   0.687  0.7272 -0.3304 -0.0664
 4078SOL    HW220574   8.475   4.545   0.825 -0.3174  0.0617 -0.0497
 4079SOL     OW20575   8.093   3.856   3.335  0.4734  0.7262  0.7025
 4079SOL    HW120576   8.073   3.802   3.417  3.3375  0.2388  1.1348
 4079SOL    HW220577   8.121   3.948   3.362 -0.6394  1.2394  0.1474
 4080SOL     OW20578   0.983   5.193   1.936  0.0696  0.0003  0.1736
 4080SOL    HW120579   0.933   5.107   1.945 -0.0675  0.1385  0.7036
 4080SOL    HW220580   0.921   5.270   1.953 -0.4769  0.3136 -2.9212
 4081SOL     OW20581   2.517   8.455   0.895 -0.0122 -0.5912 -0.2119
 4081SOL    HW120582   2.420   8.439   0.878 -0.1130 -0.3797  0.1611
 4081SOL    HW220583   2.560   8.490   0.812 -0.2601 -0.6598 -0.3686
 4082SOL     OW20584   9.682   7.258   4.272  0.3662  0.3745  0.3021
 4082SOL    HW120585   9.668   7.230   4.367  0.7172 -0.0037  0.2456
 4082SOL    HW220586   9.780   7.257   4.251  0.3242  0.9658  0.0895
 4084SOL     OW20587   0.323   1.817   1.601  0.2547  0.0270 -0.0567
 4084SOL    HW120588   0.410   1.856   1.629  0.5502 -1.5685  1.3532
 4084SOL    HW220589   0.305   1.734   1.654 -2.0012  0.1879 -0.5024
 4085SOL     OW20590   9.572   5.599   0.162 -0.9524  0.7616 -0.2417
 4085SOL    HW120591   9.576   5.629   0.257  2.2451  1.3154 -0.4913
 4085SOL    HW220592   9.617   5.509   0.154 -0.5529  1.0503 -1.3277
 4086SOL     OW20593   0.489   1.405   0.794 -0.2465 -0.5205 -0.4716
 4086SOL    HW120594   0.523   1.312   0.801  0.3471 -0.4071 -1.7001
 4086SOL    HW220595   0.483   1.432   0.697 -1.4200  0.3443 -0.1799
 4087SOL     OW20596   9.026   0.543   3.359  0.1435  0.3773 -0.2142
 4087SOL    HW120597   9.000   0.563   3.265 -1.1877  1.4489  0.3701
 4087SOL    HW220598   9.048   0.628   3.406  1.9036 -0.2526  0.1384
 4091SOL     OW20599   6.994   0.068   0.476 -0.4653  0.3891  0.2956
 4091SOL    HW120600   7.017  -0.029   0.481 -1.3117  0.2749  2.3995
 4091SOL    HW220601   7.048   0.119   0.542 -1.4176  1.0626  0.5779
 4092SOL     OW20602   4.782   3.298   1.615  0.6571  0.4345  0.2883
 4092SOL    HW120603   4.871   3.322   1.654  0.3799  1.5366  0.2539
 4092SOL    HW220604   4.714   3.366   1.642  0.5369  1.4688 -2.4027
 4094SOL     OW20605   2.725   8.698   3.426  0.5859 -0.0080  0.0647
 4094SOL    HW120606   2.673   8.783   3.422  2.6117  1.2148 -0.8667
 4094SOL    HW220607   2.677   8.628   3.373 -0.7108  0.7717  0.1941
 4095SOL     OW20608   9.208   8.607   2.337 -0.0084 -0.0910  0.2521
 4095SOL    HW120609   9.184   8.575   2.245 -0.2740  0.2140  0.2161
 4095SOL    HW220610   9.129   8.598   2.397 -0.0110  0.2781  0.3031
 4096SOL     OW20611   7.615   0.281   1.876  0.0105 -0.0872 -0.3046
 4096SOL    HW120612   7.693   0.330   1.915 -1.0424  0.2593  1.3796
 4096SOL    HW220613   7.558   0.346   1.825  1.3313 -0.5218 -2.4399
 4097SOL     OW20614   1.481   7.621   2.804  0.7039  0.4807 -0.7986
 4097SOL    HW120615   1.564   7.608   2.858  0.5465  3.1953  0.1560
 4097SOL    HW220616   1.501   7.604   2.707  2.0501 -0.1341 -0.4216
 4099SOL     OW20617   7.800   6.473   3.994 -0.7838  0.5363 -0.5681
 4099SOL    HW120618   7.713   6.432   4.025 -0.1438 -0.6313 -0.2638
 4099SOL    HW220619   7.785   6.522   3.909 -1.8046  0.5753 -0.3771
 4100SOL     OW20620   7.896   2.978   1.989  0.2902 -0.0628 -0.3874
 4100SOL    HW120621   7.812   2.970   2.043 -0.7637  2.8607 -1.5297
 4100SOL    HW220622   7.958   3.042   2.033  0.2949  0.7494 -1.5570
 4102SOL     OW20623   3.116   5.687   4.344 -0.2560 -0.2136  0.6037
 4102SOL    HW120624   3.160   5.642   4.267  1.8950  0.6780  1.2786
 4102SOL    HW220625   3.084   5.618   4.410  1.2523 -0.8344  0.7003
 4103SOL     OW20626   9.035   5.618   1.744 -0.3146 -0.7657 -0.0454
 4103SOL    HW120627   8.989   5.639   1.657  0.7345  1.0421 -0.1943
 4103SOL    HW220628   8.987   5.664   1.818  1.3953  1.4177 -0.2426
 4104SOL     OW20629   0.588   4.381   0.281 -0.2928 -0.1099  0.0524
 4104SOL    HW120630   0.527   4.331   0.219 -0.5381  1.1011 -0.7031
 4104SOL    HW220631   0.610   4.470   0.241  0.7666  0.0728  1.0193
 4105SOL     OW20632   8.790   1.158   4.034  0.3356 -0.7997 -0.0373
 4105SOL    HW120633   8.742   1.163   3.946 -0.2425 -0.9942  0.2691
 4105SOL    HW220634   8.740   1.097   4.096  0.0388  0.3628  0.8766
 4106SOL     OW20635   9.755   7.965   4.260 -0.2422 -0.1862 -0.0767
 4106SOL    HW120636   9.808   8.011   4.189 -0.1950 -0.1371 -0.0104
 4106SOL    HW220637   9.658   7.984   4.247 -0.1162  1.2057  0.8496
 4107SOL     OW20638   7.928   9.031   1.992  0.8528  0.1694  0.0045
 4107SOL    HW120639   7.928   9.075   2.082  2.1423  0.7924 -0.2864
 4107SOL    HW220640   7.981   8.947   1.997  1.6990  0.6711 -0.3837
 4108SOL     OW20641   3.263   7.387   3.920 -0.2633  0.0753  0.0282
 4108SOL    HW120642   3.302   7.324   3.853  0.9888  0.2176  0.6058
 4108SOL    HW220643   3.190   7.440   3.877 -2.6680 -3.0955  0.0575
 4109SOL     OW20644   3.307   9.243   2.615 -0.0900 -0.1510 -0.8826
 4109SOL    HW120645   3.214   9.228   2.649  0.5395  0.2946  1.1293
 4109SOL    HW220646   3.305   9.310   2.541 -1.0738  1.9391  0.9814
 4110SOL     OW20647   7.401   1.681   2.293  0.1844  0.2158 -0.4658
 4110SOL    HW120648   7.337   1.756   2.312 -1.0229 -0.2343 -2.6158
 4110SOL    HW220649   7.394   1.656   2.197  2.6776 -0.7387 -0.4052
 4111SOL     OW20650   4.979   6.787   3.183 -0.7025 -0.0590 -0.6677
 4111SOL    HW120651   4.929   6.873   3.192  1.7586  1.1249  2.9994
 4111SOL    HW220652   4.953   6.724   3.256  2.5979  0.3949  1.0299
 4112SOL     OW20653   1.790   6.156   3.600  0.3634 -0.0240  0.1883
 4112SOL    HW120654   1.728   6.220   3.557  0.4218 -1.3310 -1.8946
 4112SOL    HW220655   1.753   6.127   3.688 -1.2380  0.3457 -0.3642
 4113SOL     OW20656   9.927   5.262   0.956  0.0565  0.5014  0.0636
 4113SOL    HW120657   9.951   5.311   1.040  1.7458  1.7462 -1.1080
 4113SOL    HW220658   9.962   5.168   0.960  2.1922  1.2575 -0.1744
 4114SOL     OW20659   1.998   6.135   2.593  0.4492  0.5233  0.4580
 4114SOL    HW120660   2.032   6.218   2.549  2.3442  1.0179  2.7590
 4114SOL    HW220661   1.904   6.148   2.622 -0.4871  0.5461 -2.4363
 4115SOL     OW20662   2.686   6.395   2.297  0.3328  0.6405  0.0087
 4115SOL    HW120663   2.654   6.457   2.225 -2.5704 -0.5352  0.2112
 4115SOL    HW220664   2.699   6.446   2.382  0.3668  1.3932 -0.4419
 4117SOL     OW20665   0.731   6.263   3.451 -0.7460  0.0680 -0.5008
 4117SOL    HW120666   0.655   6.200   3.439  0.4542 -1.9946  2.1574
 4117SOL    HW220667   0.817   6.218   3.426  0.0099  0.9883  0.3615
 4119SOL     OW20668   0.931   4.652   0.085  0.3663 -0.5628 -0.1756
 4119SOL    HW120669   1.029   4.669   0.075  0.1273  0.8472 -0.2752
 4119SOL    HW220670   0.887   4.657  -0.005  0.0506 -0.1067 -0.0006
 4120SOL     OW20671   5.259   1.351   2.523 -0.0050 -0.1845 -0.6752
 4120SOL    HW120672   5.293   1.445   2.521  2.2550 -0.9497  0.4276
 4120SOL    HW220673   5.218   1.328   2.434  0.7592  1.3524 -1.4279
 4121SOL     OW20674   4.450   9.770   3.416 -0.2123  0.1110  0.3334
 4121SOL    HW120675   4.405   9.799   3.332  0.8111  0.9340  0.0621
 4121SOL    HW220676   4.402   9.691   3.454 -2.0436  1.1246  0.1826
 4122SOL     OW20677   0.052   2.014   3.671  0.4693 -0.1125 -1.0660
 4122SOL    HW120678   0.003   2.003   3.758  0.6710 -1.2746 -1.0814
 4122SOL    HW220679   0.150   2.003   3.687  0.6361  1.1457 -1.2097
 4124SOL     OW20680   0.080   8.157   0.264 -0.1957  0.3871  0.9407
 4124SOL    HW120681  -0.016   8.188   0.263 -0.1781  0.4610  1.3837
 4124SOL    HW220682   0.127   8.193   0.184 -1.1449 -1.6197 -0.5628
 4125SOL     OW20683   0.603   5.061   2.052 -0.2012  0.0335  0.4716
 4125SOL    HW120684   0.598   5.019   2.143 -1.4256 -2.1485 -0.5551
 4125SOL    HW220685   0.549   5.145   2.051 -2.3423 -1.3013  1.0657
 4126SOL     OW20686   9.513   3.253   1.951  0.0313 -0.0667 -0.6750
 4126SOL    HW120687   9.527   3.314   1.872  0.2251  0.9308  0.1166
 4126SOL    HW220688   9.583   3.182   1.951 -0.8768 -1.0063 -2.2603
 4127SOL     OW20689   0.483   0.560   1.758 -0.2891 -0.1365  0.4339
 4127SOL    HW120690   0.563   0.579   1.701 -1.3859 -2.6806 -2.0445
 4127SOL    HW220691   0.513   0.516   1.843  1.1200  0.9040  0.4871
 4128SOL     OW20692   0.339   7.028   3.463 -0.5340 -0.5222 -0.0647
 4128SOL    HW120693   0.372   7.029   3.557  0.2048 -1.7012 -0.3124
 4128SOL    HW220694   0.242   7.006   3.462 -0.2640 -1.7619  0.3404
 4129SOL     OW20695   9.659   8.317   2.742  0.5578 -0.1925 -0.5080
 4129SOL    HW120696   9.678   8.415   2.750 -0.0527 -0.0715 -0.5161
 4129SOL    HW220697   9.743   8.268   2.720  0.5559  0.5228 -2.1529
 4130SOL     OW20698   9.665   2.525   2.441 -0.2056  0.0699 -0.1733
 4130SOL    HW120699   9.608   2.459   2.489 -0.1136 -0.8945 -1.3721
 4130SOL    HW220700   9.760   2.495   2.442  0.0761  0.9505  0.5747
 4132SOL     OW20701   3.844   2.138   1.697  0.2357 -0.2481 -0.2655
 4132SOL    HW120702   3.860   2.096   1.786  1.6220  1.2837  0.2445
 4132SOL    HW220703   3.900   2.093   1.628  0.9851  0.1206  0.0951
 4133SOL     OW20704   2.708   8.871   2.085  0.0837 -0.4861  0.4532
 4133SOL    HW120705   2.773   8.884   2.010 -1.4428 -1.8415 -1.1640
 4133SOL    HW220706   2.755   8.883   2.172  2.2325 -0.2607 -0.6878
 4134SOL     OW20707   9.241   4.985   2.240  0.5185 -0.1635 -0.5503
 4134SOL    HW120708   9.183   4.937   2.305 -1.9295  2.2388 -0.8662
 4134SOL    HW220709   9.303   5.046   2.290  1.6882 -1.5344 -0.2945
 4135SOL     OW20710   3.440   1.583   1.403  0.4703  0.1838  0.5867
 4135SOL    HW120711   3.497   1.634   1.468  1.0328 -1.3639  1.3379
 4135SOL    HW220712   3.477   1.491   1.392  0.0073  0.2229 -1.4708
 4137SOL     OW20713   2.110   6.581   0.935  0.0697 -0.0786 -0.1403
 4137SOL    HW120714   2.055   6.498   0.929 -1.9808  1.2702 -0.6587
 4137SOL    HW220715   2.139   6.609   0.844  1.3540 -0.6131  0.1029
 4138SOL     OW20716   4.867   9.522   4.081  0.2247  0.3364  0.6526
 4138SOL    HW120717   4.929   9.479   4.015  0.1535 -0.8224  1.3295
 4138SOL    HW220718   4.846   9.615   4.051  0.5058 -0.0413 -0.7571
 4139SOL     OW20719   3.923   8.506   3.833 -0.1723 -0.3385 -0.3530
 4139SOL    HW120720   3.957   8.573   3.899 -1.6127  0.8568 -0.8033
 4139SOL    HW220721   3.969   8.418   3.849  0.7002  0.3609  1.1609
 4141SOL     OW20722   6.099   7.293   2.150 -0.4073 -0.3155 -0.7408
 4141SOL    HW120723   6.040   7.288   2.231 -0.8469 -1.8130 -1.1456
 4141SOL    HW220724   6.042   7.308   2.069 -0.1036 -0.3185 -0.9531
 4142SOL     OW20725   0.453   2.910   3.053  0.4236  0.4379  0.2020
 4142SOL    HW120726   0.419   2.929   3.145  2.8721  1.0329  1.0229
 4142SOL    HW220727   0.552   2.924   3.051  0.7385 -1.8750 -1.9314
 4143SOL     OW20728   0.903   2.364   2.383  0.0680 -0.5333  0.1963
 4143SOL    HW120729   0.929   2.267   2.385 -0.4860 -0.6781  0.6592
 4143SOL    HW220730   0.928   2.407   2.470  1.7310  0.1252 -0.5960
 4144SOL     OW20731   6.512   8.570   4.063  0.3042 -0.0641 -0.1483
 4144SOL    HW120732   6.432   8.619   4.029 -0.7596 -0.9988  0.9522
 4144SOL    HW220733   6.546   8.614   4.146  0.9694  0.3620 -0.6421
 4145SOL     OW20734   2.118   5.724   3.059 -0.0235  0.1737 -0.4169
 4145SOL    HW120735   2.207   5.747   3.021  0.3432 -0.5469 -0.0152
 4145SOL    HW220736   2.054   5.705   2.985  0.9213 -2.0929 -0.6951
 4147SOL     OW20737   2.164   8.395   2.242 -0.1852 -0.4662  0.4279
 4147SOL    HW120738   2.163   8.313   2.300  1.4686 -1.5982 -1.0982
 4147SOL    HW220739   2.100   8.382   2.166 -0.5331  0.0112  0.6362
 4149SOL     OW20740   9.395   2.058   1.108 -0.0930 -0.0250 -0.3706
 4149SOL    HW120741   9.321   2.113   1.147  0.7995  0.4368  0.6981
 4149SOL    HW220742   9.427   1.992   1.176  0.0308 -0.6810 -1.0564
 4153SOL     OW20743   1.853   1.663   2.515  0.0507  0.5070 -0.3340
 4153SOL    HW120744   1.830   1.615   2.599  0.9051  1.2306  0.3215
 4153SOL    HW220745   1.895   1.751   2.537 -0.2368  0.9592 -1.5165
 4154SOL     OW20746   6.812   0.397   2.211 -0.0146  0.1493  0.4496
 4154SOL    HW120747   6.792   0.368   2.304  1.9218  0.1346  0.8913
 4154SOL    HW220748   6.783   0.327   2.146 -0.3716 -0.3207  1.1174
 4155SOL     OW20749   8.092   0.332   3.121 -0.8935 -0.1767 -0.0871
 4155SOL    HW120750   8.076   0.268   3.046 -1.4401  0.1430 -0.2422
 4155SOL    HW220751   8.041   0.417   3.104  0.2717  0.5233 -0.1787
 4156SOL     OW20752   0.995   3.302   1.207  0.4759 -0.3341 -0.6692
 4156SOL    HW120753   1.040   3.318   1.295  0.1314 -0.0691 -0.5407
 4156SOL    HW220754   0.989   3.204   1.190 -1.7289 -0.4888  0.8015
 4157SOL     OW20755   0.750   3.187   4.187  0.0251 -0.3834 -0.1026
 4157SOL    HW120756   0.799   3.158   4.270  0.8522  0.3700 -0.3324
 4157SOL    HW220757   0.687   3.114   4.159 -1.0359 -0.2377  1.7811
 4159SOL     OW20758   0.029   7.580   2.647  0.2912  0.0933  0.3608
 4159SOL    HW120759   0.010   7.626   2.734  2.3192  0.5200  0.6111
 4159SOL    HW220760   0.028   7.481   2.661  1.0423  0.1678  0.9709
 4160SOL     OW20761   2.425   9.346   1.406  0.1375  0.2261  0.2637
 4160SOL    HW120762   2.514   9.364   1.365  1.0298 -1.5114  1.3584
 4160SOL    HW220763   2.395   9.254   1.380 -1.7993  1.1407 -0.8723
 4162SOL     OW20764   9.110   4.375   4.045 -0.0246 -0.2650 -0.3645
 4162SOL    HW120765   9.019   4.362   4.004 -1.3652  1.2617  1.9884
 4162SOL    HW220766   9.132   4.473   4.045  0.9012 -0.4734  0.5663
 4163SOL     OW20767   3.919   9.881   0.783  0.0316  0.5702 -0.1469
 4163SOL    HW120768   3.892   9.927   0.868  0.8778 -0.4068  0.6647
 4163SOL    HW220769   3.993   9.933   0.740  0.3216  0.4968  0.2597
 4164SOL     OW20770   6.086   8.198   3.324 -0.0384  0.4445 -0.3169
 4164SOL    HW120771   6.150   8.144   3.269  1.3078  0.6436  1.0094
 4164SOL    HW220772   6.137   8.254   3.390 -1.6120  0.0646  1.2740
 4167SOL     OW20773   3.964   8.411   0.905 -0.1578  0.5185  0.2069
 4167SOL    HW120774   3.908   8.447   0.831  0.0344 -1.4937 -0.9619
 4167SOL    HW220775   3.912   8.412   0.990 -0.8023  1.7303 -0.1912
 4168SOL     OW20776   3.302   9.155   2.974 -0.0640 -0.0530 -0.0421
 4168SOL    HW120777   3.294   9.118   3.067  1.1637 -2.6423 -0.9462
 4168SOL    HW220778   3.220   9.134   2.922 -2.3519  4.5001  1.4342
 4173SOL     OW20779   4.434   1.474   1.720  0.8149 -0.4106 -0.2704
 4173SOL    HW120780   4.425   1.534   1.640 -0.5022  1.0772  0.9676
 4173SOL    HW220781   4.366   1.401   1.715  1.1646 -0.7046 -0.8224
 4176SOL     OW20782   7.313   1.513   1.160 -0.3878 -0.0586 -0.1735
 4176SOL    HW120783   7.253   1.433   1.161 -0.2583 -0.1508  0.2118
 4176SOL    HW220784   7.260   1.593   1.132 -0.8512 -0.0211  0.7696
 4177SOL     OW20785   9.663   2.395   1.936  0.1738  0.0765 -0.2905
 4177SOL    HW120786   9.573   2.425   1.968  0.4532  0.4015  0.1881
 4177SOL    HW220787   9.709   2.470   1.889 -1.0064 -0.9145 -3.1753
 4178SOL     OW20788   9.107   5.005   1.908 -1.2244  0.4456 -0.2905
 4178SOL    HW120789   9.055   4.976   1.989 -1.6832 -0.0996 -0.7716
 4178SOL    HW220790   9.203   5.015   1.932 -1.1153 -1.1468 -0.0257
 4179SOL     OW20791   0.987   6.775   2.990 -0.2778 -0.1587  0.1022
 4179SOL    HW120792   0.887   6.774   2.994 -0.3146 -1.0504 -0.7026
 4179SOL    HW220793   1.019   6.699   2.934  0.8660  0.0442  0.4503
 4180SOL     OW20794   2.262   6.640   1.884 -0.2053  0.4724 -0.3375
 4180SOL    HW120795   2.314   6.577   1.941 -2.1267 -3.0248 -2.2793
 4180SOL    HW220796   2.309   6.653   1.797 -1.5370 -1.1148 -1.3131
 4182SOL     OW20797   1.750   9.418   1.359  0.3702  0.1443  0.8699
 4182SOL    HW120798   1.775   9.459   1.446  0.8406  0.6667  0.4889
 4182SOL    HW220799   1.824   9.431   1.293 -0.5064  0.8650  0.0132
 4183SOL     OW20800   8.634   2.523   0.620 -0.1400  0.1346  0.4541
 4183SOL    HW120801   8.623   2.611   0.574 -0.0009 -0.2718 -0.3637
 4183SOL    HW220802   8.618   2.534   0.718 -1.3267  0.8366  0.1876
 4184SOL     OW20803   3.357   8.529   2.286  0.0207 -0.1983  0.6208
 4184SOL    HW120804   3.269   8.558   2.322 -0.0656  1.0379 -0.5423
 4184SOL    HW220805   3.431   8.567   2.341 -0.1275  1.0089  0.0047
 4185SOL     OW20806   3.041   9.782   0.025  0.3073  0.0698 -0.3348
 4185SOL    HW120807   3.078   9.874   0.033  0.2841  0.0212  0.3928
 4185SOL    HW220808   3.095   9.729  -0.041  0.9116  0.3081 -0.0301
 4186SOL     OW20809   8.274   7.317   2.120  0.3844  0.6387 -0.0886
 4186SOL    HW120810   8.261   7.412   2.091 -0.7018  0.4904 -0.1159
 4186SOL    HW220811   8.259   7.257   2.042  2.4900  0.5157 -0.4158
 4187SOL     OW20812   9.709   3.169   0.400 -0.9366  0.2411  0.1157
 4187SOL    HW120813   9.784   3.235   0.414 -0.3921 -0.2943 -0.2722
 4187SOL    HW220814   9.637   3.186   0.468 -1.2560  1.8950 -0.6191
 4189SOL     OW20815   1.253   0.530   0.001  0.3560 -0.9170  0.0585
 4189SOL    HW120816   1.211   0.442   0.024  0.2220 -0.9433 -0.2826
 4189SOL    HW220817   1.208   0.603   0.052  0.1074 -0.9817 -0.0716
 4190SOL     OW20818   0.924   7.504   4.233 -0.1602 -0.3403  0.2235
 4190SOL    HW120819   1.009   7.543   4.198 -0.3063 -1.1148 -1.0608
 4190SOL    HW220820   0.874   7.462   4.157 -0.9182 -1.2988  1.2396
 4191SOL     OW20821   3.440   4.119   0.669 -0.6676  0.1096 -0.8209
 4191SOL    HW120822   3.439   4.025   0.634 -2.5950 -0.3995  0.5091
 4191SOL    HW220823   3.359   4.167   0.637 -0.1986  1.0118 -0.6657
 4192SOL     OW20824   2.421   3.859   0.713  0.8664 -0.3695 -0.0211
 4192SOL    HW120825   2.447   3.928   0.779  0.1123  1.3212 -1.4582
 4192SOL    HW220826   2.342   3.807   0.748 -0.9259  1.9545 -0.4905
 4194SOL     OW20827   8.049   2.259   2.686  0.0324 -0.0085 -0.0008
 4194SOL    HW120828   8.076   2.163   2.685  1.3445  0.3507 -0.2969
 4194SOL    HW220829   7.950   2.266   2.696  0.1405 -1.3454  2.1663
 4195SOL     OW20830   4.521   8.883   2.668  0.0934  0.2791  0.0260
 4195SOL    HW120831   4.546   8.953   2.602  0.8854 -0.7644 -0.8026
 4195SOL    HW220832   4.429   8.902   2.704  0.3754  1.8247 -0.0360
 4197SOL     OW20833   9.617   7.690   2.191 -0.2124 -0.8278 -0.0840
 4197SOL    HW120834   9.578   7.691   2.283 -0.3164 -1.1862 -0.1223
 4197SOL    HW220835   9.684   7.616   2.185 -0.9160 -1.4279 -0.5861
 4198SOL     OW20836   1.317   0.496   0.579 -0.0517 -0.6850  0.5984
 4198SOL    HW120837   1.372   0.533   0.504  0.6458  0.1539  1.5168
 4198SOL    HW220838   1.372   0.433   0.634 -0.7486 -1.8008  0.0425
 4199SOL     OW20839   3.896   2.314   0.889 -0.2185  0.3030  0.4091
 4199SOL    HW120840   3.832   2.291   0.816  0.5825 -0.4363 -0.0614
 4199SOL    HW220841   3.849   2.308   0.977 -1.7680  3.2830 -0.1588
 4201SOL     OW20842   0.394   7.863   2.371 -0.3602  0.2327  0.5277
 4201SOL    HW120843   0.419   7.952   2.410  3.0771 -1.2606  1.9850
 4201SOL    HW220844   0.338   7.812   2.437 -0.3013  0.3746  0.6871
 4202SOL     OW20845   9.621   2.192   1.235 -0.0903  0.1720 -0.5018
 4202SOL    HW120846   9.588   2.157   1.323  0.9087 -0.3841 -0.3427
 4202SOL    HW220847   9.568   2.150   1.161  0.4332 -0.9574 -0.2594
 4203SOL     OW20848   4.496   1.078   1.916  0.3195  0.4577 -0.4457
 4203SOL    HW120849   4.422   1.045   1.858  0.1490  0.7593 -0.3969
 4203SOL    HW220850   4.510   1.014   1.992  1.0122 -0.3148 -1.2030
 4204SOL     OW20851   3.656   8.496   3.891 -0.6373  0.3138  0.5976
 4204SOL    HW120852   3.621   8.402   3.892  0.0369  0.0110 -1.8402
 4204SOL    HW220853   3.750   8.496   3.857 -1.1001  1.9980 -0.7664
 4205SOL     OW20854   2.697   4.158   1.006 -0.7229  0.2933  0.8072
 4205SOL    HW120855   2.772   4.154   0.939 -1.3542 -1.1990  0.1789
 4205SOL    HW220856   2.691   4.251   1.043  0.6143  0.7526 -0.0770
 4206SOL     OW20857   1.990   6.839   1.279  0.4153 -0.4300 -0.5535
 4206SOL    HW120858   2.070   6.899   1.282  0.4355 -0.4399 -0.8626
 4206SOL    HW220859   1.942   6.842   1.366 -0.4574  1.2180 -1.0746
 4207SOL     OW20860   8.319   7.578   2.000  0.4484  0.2628 -0.3486
 4207SOL    HW120861   8.258   7.627   2.062  0.6397  0.9319 -0.6841
 4207SOL    HW220862   8.315   7.620   1.909  0.0410 -0.8130 -0.8379
 4208SOL     OW20863   8.384   1.209   3.935  0.4226 -0.0577  0.6176
 4208SOL    HW120864   8.339   1.298   3.936  0.6456  0.0670 -0.3526
 4208SOL    HW220865   8.334   1.146   3.994  0.4570  0.8004  1.5911
 4209SOL     OW20866   0.683   0.400   2.915  0.1040  0.1560  0.2707
 4209SOL    HW120867   0.698   0.315   2.965  0.1074 -0.8307 -1.3671
 4209SOL    HW220868   0.706   0.386   2.819 -1.2188  1.6257 -0.2751
 4210SOL     OW20869   3.457   7.649   1.427  0.2972 -0.4736  0.6070
 4210SOL    HW120870   3.429   7.744   1.412 -1.1750 -1.1472 -1.1729
 4210SOL    HW220871   3.555   7.640   1.409 -0.3386 -0.1081 -3.6710
 4214SOL     OW20872   9.505   2.392   3.717 -0.5959  0.0236  0.5932
 4214SOL    HW120873   9.545   2.340   3.641 -1.3085 -1.3426  1.1302
 4214SOL    HW220874   9.504   2.489   3.694  1.9127 -0.0397  0.0728
 4215SOL     OW20875   1.701   6.557   0.389  0.2567  0.8119 -0.6323
 4215SOL    HW120876   1.721   6.474   0.336  0.6006 -0.0971  0.8971
 4215SOL    HW220877   1.647   6.619   0.333 -2.1015 -1.4653 -1.0162
 4216SOL     OW20878   4.708   3.420   0.820  0.1227 -0.3893  0.1974
 4216SOL    HW120879   4.720   3.445   0.724  0.1125 -0.4139  0.1896
 4216SOL    HW220880   4.685   3.323   0.825  1.6860 -0.7695  0.3218
 4217SOL     OW20881   3.209   8.616   1.173 -0.4266  0.5733  0.2682
 4217SOL    HW120882   3.144   8.673   1.122 -0.7123  0.9240  1.0058
 4217SOL    HW220883   3.191   8.626   1.271 -1.0410 -1.4526  0.3799
 4218SOL     OW20884   0.840   6.367   2.525 -0.3682 -0.0917  0.2564
 4218SOL    HW120885   0.834   6.447   2.466 -0.4687 -1.8334 -2.1501
 4218SOL    HW220886   0.929   6.323   2.512 -0.9959 -1.3598  0.2492
 4219SOL     OW20887   5.204   1.167   2.689  0.3640 -0.1204 -0.0690
 4219SOL    HW120888   5.285   1.162   2.747  0.9055  1.2552 -0.6919
 4219SOL    HW220889   5.215   1.241   2.623 -0.7732 -0.8806 -1.1212
 4220SOL     OW20890   7.771   5.793   2.847 -0.6112 -0.0285  0.5005
 4220SOL    HW120891   7.710   5.847   2.904  0.7555  1.3224  0.7224
 4220SOL    HW220892   7.766   5.825   2.752  0.4601  0.7475  0.6939
 4222SOL     OW20893   0.031   2.402   2.792 -0.4359  0.4647  0.0647
 4222SOL    HW120894   0.090   2.377   2.868 -1.4753 -0.5574  0.5515
 4222SOL    HW220895   0.025   2.325   2.728 -1.2946  0.5314  0.0572
 4223SOL     OW20896   4.095   3.832   2.908  0.3732  0.0217  0.0515
 4223SOL    HW120897   4.161   3.899   2.874  1.8479 -1.4447  0.0014
 4223SOL    HW220898   4.137   3.741   2.911 -1.7769 -1.0168 -0.4158
 4224SOL     OW20899   3.294   9.659   3.851 -0.4565  0.3825  0.5076
 4224SOL    HW120900   3.295   9.586   3.919  0.3579 -2.1493 -2.0964
 4224SOL    HW220901   3.259   9.622   3.764 -0.3908  3.2031 -0.7676
 4225SOL     OW20902   0.792   8.544   3.490 -0.7185  0.1734 -0.2379
 4225SOL    HW120903   0.823   8.472   3.552  0.7156 -0.1596 -1.3235
 4225SOL    HW220904   0.867   8.608   3.472 -1.7882  1.5761  0.1870
 4226SOL     OW20905   5.842   9.608   3.117  0.2424  0.4236  0.6078
 4226SOL    HW120906   5.801   9.524   3.082  1.6633 -0.3119  0.6824
 4226SOL    HW220907   5.852   9.674   3.043  0.3968  0.0134  0.2646
 4229SOL     OW20908   1.669   9.761   4.070  0.5675  0.0412  0.1760
 4229SOL    HW120909   1.729   9.694   4.114  0.6341  0.4193  0.6634
 4229SOL    HW220910   1.598   9.790   4.134 -0.3777 -0.7053 -0.5369
 4231SOL     OW20911   9.957   7.952   2.574  0.8221  0.0124 -0.1720
 4231SOL    HW120912  10.003   7.955   2.486  1.2686  0.0840  0.0640
 4231SOL    HW220913   9.886   7.882   2.572 -0.2837  1.1395 -1.1329
 4232SOL     OW20914   0.182   7.954   1.789  0.6956 -0.1085  0.7205
 4232SOL    HW120915   0.230   8.036   1.756 -1.3730  0.9698  0.3265
 4232SOL    HW220916   0.172   7.889   1.714 -0.8856  0.8506  0.0703
 4233SOL     OW20917   1.452   8.448   1.277  0.0754 -0.3422  0.5623
 4233SOL    HW120918   1.458   8.355   1.241 -0.0490  0.4095 -1.4078
 4233SOL    HW220919   1.374   8.495   1.235  1.0901  1.1776  0.3588
 4234SOL     OW20920   9.434   1.125   2.807  0.0318  0.4789 -0.3866
 4234SOL    HW120921   9.518   1.139   2.861  1.5953 -2.1167 -2.0409
 4234SOL    HW220922   9.355   1.159   2.859  1.9397  1.7680  1.7772
 4236SOL     OW20923   5.968   0.703   1.947 -0.2695 -0.0673  0.5329
 4236SOL    HW120924   5.914   0.627   1.984 -1.1863  0.9259  1.2908
 4236SOL    HW220925   6.003   0.758   2.023  1.8282 -0.6864  0.0458
 4237SOL     OW20926   2.053   5.559   1.391  0.1333 -1.1274  0.6448
 4237SOL    HW120927   1.962   5.554   1.351  0.0388  2.9276  0.2079
 4237SOL    HW220928   2.121   5.541   1.320 -0.2302 -0.5339  0.1390
 4238SOL     OW20929   1.524   6.211   0.231 -0.1321 -1.0497  0.1849
 4238SOL    HW120930   1.618   6.243   0.225 -0.0912 -1.0796  0.6622
 4238SOL    HW220931   1.517   6.139   0.300 -0.6172 -0.6223  0.5871
 4241SOL     OW20932   9.429   8.020   0.612  0.3895  0.4697  0.0295
 4241SOL    HW120933   9.381   8.089   0.666  0.6021  0.2896  0.4493
 4241SOL    HW220934   9.401   8.028   0.516  1.3311  1.9406 -0.1322
 4244SOL     OW20935   6.176   0.176   1.428  0.5675 -0.1054 -0.3004
 4244SOL    HW120936   6.128   0.246   1.481  1.7576  1.2428 -0.9414
 4244SOL    HW220937   6.224   0.114   1.490 -0.3519 -0.2399  0.2752
 4245SOL     OW20938   8.947   0.044   4.225  0.4053  0.1091 -0.3373
 4245SOL    HW120939   8.923   0.099   4.305  0.1498  1.9698 -1.6684
 4245SOL    HW220940   9.029  -0.010   4.244 -0.5193 -0.6422  1.6880
 4246SOL     OW20941   1.199   0.392   2.949 -0.0001  0.1463  0.4917
 4246SOL    HW120942   1.161   0.379   2.857  0.2459 -0.2508  0.4425
 4246SOL    HW220943   1.139   0.347   3.015  0.7514 -1.1222  0.3401
 4247SOL     OW20944   4.159   2.818   2.374 -0.9959 -0.3135  0.0733
 4247SOL    HW120945   4.228   2.746   2.363 -0.5332 -0.2445  2.3722
 4247SOL    HW220946   4.083   2.801   2.311 -1.1640 -3.1534  0.9964
 4248SOL     OW20947   7.848   9.562   4.270 -0.2683  0.2550  0.5537
 4248SOL    HW120948   7.854   9.662   4.263 -1.0436  0.2859  0.2822
 4248SOL    HW220949   7.862   9.521   4.181 -0.1526  0.1306  0.6290
 4249SOL     OW20950   1.957   1.785   4.029  0.5086 -0.1458  0.7205
 4249SOL    HW120951   1.969   1.687   4.015  1.0651  0.0589 -0.2418
 4249SOL    HW220952   1.863   1.810   4.006  1.1522  0.0298 -1.8227
 4251SOL     OW20953   2.044   3.227   2.702  0.1574 -0.1448  0.0785
 4251SOL    HW120954   1.960   3.279   2.690  0.9874  1.1620 -0.2216
 4251SOL    HW220955   2.111   3.255   2.634  0.6287 -1.6258 -0.0863
 4252SOL     OW20956   9.888   2.988   4.327 -0.2021  0.8502 -0.5530
 4252SOL    HW120957   9.819   3.060   4.328 -0.8525  0.2339  1.0762
 4252SOL    HW220958   9.855   2.910   4.274 -0.0611  1.2152 -1.1772
 4253SOL     OW20959   9.278   5.886   3.503 -0.3261  0.7964 -0.0933
 4253SOL    HW120960   9.364   5.932   3.526 -0.1220  1.1328 -1.4533
 4253SOL    HW220961   9.272   5.799   3.552  0.4061  1.1477  0.6313
 4255SOL     OW20962   5.901   7.338   4.137 -0.3402  0.5346 -0.1364
 4255SOL    HW120963   5.803   7.317   4.138 -0.0287 -1.2926 -2.6317
 4255SOL    HW220964   5.914   7.432   4.106 -1.3314  0.9710  0.7466
 4256SOL     OW20965   8.394   2.435   3.483  0.6744 -0.5720 -0.0468
 4256SOL    HW120966   8.312   2.408   3.533  2.1323 -2.1026  1.6134
 4256SOL    HW220967   8.455   2.485   3.545  2.0222 -1.5161 -0.6038
 4258SOL     OW20968   7.137   8.188   3.673  0.2509  0.2983 -0.4650
 4258SOL    HW120969   7.065   8.250   3.643 -0.1105 -0.1832 -0.5963
 4258SOL    HW220970   7.096   8.105   3.710  0.7560 -0.5346 -1.7646
 4259SOL     OW20971   3.150   3.109   0.430  0.6744 -0.5083 -0.1558
 4259SOL    HW120972   3.168   3.108   0.529 -0.3055  2.8069  0.1127
 4259SOL    HW220973   3.227   3.154   0.384  1.3500 -2.4744 -0.9818
 4260SOL     OW20974   5.151   8.850   3.068  0.0135  0.3339  0.5104
 4260SOL    HW120975   5.182   8.785   2.998 -0.2855 -0.0204  0.7069
 4260SOL    HW220976   5.099   8.923   3.024 -0.0404  0.1970  0.3447
 4261SOL     OW20977   0.587   0.641   3.369  0.2625 -0.0488 -0.2631
 4261SOL    HW120978   0.610   0.732   3.334  0.6226  0.5067  1.3566
 4261SOL    HW220979   0.582   0.576   3.293  1.5576  1.0046 -1.2747
 4263SOL     OW20980   9.054   2.594   4.305 -0.0014 -0.0855 -0.2166
 4263SOL    HW120981   9.144   2.582   4.263 -0.2385 -0.5530 -0.5865
 4263SOL    HW220982   9.060   2.666   4.375  1.0396 -1.2284  0.8992
 4264SOL     OW20983   0.218   7.033   2.443 -0.3690 -0.3444 -0.0261
 4264SOL    HW120984   0.185   7.064   2.354 -0.3817  0.5832  0.2952
 4264SOL    HW220985   0.311   6.998   2.434 -0.3284 -0.1397 -0.3929
 4266SOL     OW20986   0.170   9.803   2.204  0.6764 -0.0707  0.2107
 4266SOL    HW120987   0.246   9.825   2.266  0.3205  1.6548  0.0415
 4266SOL    HW220988   0.125   9.887   2.175  0.3133 -0.9219 -1.7401
 4267SOL     OW20989   3.230   4.607   3.611  0.0021 -0.0569  0.4039
 4267SOL    HW120990   3.201   4.660   3.690  0.5064 -1.4428  1.5357
 4267SOL    HW220991   3.151   4.584   3.554 -0.5843 -0.4023  1.3525
 4268SOL     OW20992   2.362   9.138   1.912 -0.3659  0.5209 -0.1340
 4268SOL    HW120993   2.434   9.142   1.843 -0.5162  1.3351 -0.2545
 4268SOL    HW220994   2.400   9.162   2.002  0.1846 -2.1225  0.3831
 4269SOL     OW20995   9.218   7.802   0.307  0.3959  0.2263 -0.8830
 4269SOL    HW120996   9.283   7.730   0.328 -1.1835 -1.3426 -1.2858
 4269SOL    HW220997   9.146   7.803   0.376 -0.0389  0.8800 -1.3381
 4270SOL     OW20998   9.635   3.946   2.549  0.5300 -0.1635 -0.7250
 4270SOL    HW120999   9.705   3.881   2.579 -0.4239 -0.9337 -0.1575
 4270SOL    HW221000   9.635   4.025   2.610  1.0335 -0.0580 -0.8518
 4271SOL     OW21001   1.898   5.045   0.425 -0.6080 -0.2449 -0.3001
 4271SOL    HW121002   1.816   5.102   0.418 -0.1360  0.5959  0.7417
 4271SOL    HW221003   1.881   4.956   0.384 -1.9551  0.0211 -0.3387
 4272SOL     OW21004   3.184   7.244   1.381 -1.1909  0.7621  0.3068
 4272SOL    HW121005   3.118   7.198   1.440 -0.8425  0.2647  0.3185
 4272SOL    HW221006   3.240   7.306   1.436  0.2121 -0.8993  0.8129
 4273SOL     OW21007   3.763   8.772   1.238 -0.0536 -0.4894 -0.2608
 4273SOL    HW121008   3.797   8.822   1.318 -1.9791  2.4699 -1.2220
 4273SOL    HW221009   3.672   8.735   1.258  0.0075 -0.8612 -0.6544
 4274SOL     OW21010   4.726   1.125   2.744 -0.5355 -0.2931  0.7132
 4274SOL    HW121011   4.656   1.075   2.794  0.5665  0.2584  2.8398
 4274SOL    HW221012   4.740   1.215   2.786  0.4183  0.1867 -0.5777
 4275SOL     OW21013   0.539   1.649   0.959  0.6007 -0.8190 -0.3561
 4275SOL    HW121014   0.516   1.574   0.898  0.2217 -0.3039 -0.8559
 4275SOL    HW221015   0.637   1.668   0.953  0.6235 -0.9947 -0.5434
 4276SOL     OW21016   4.270   0.471   1.969  0.9492 -0.5835  0.5283
 4276SOL    HW121017   4.223   0.394   1.925  0.3296  0.8795 -1.4601
 4276SOL    HW221018   4.210   0.512   2.038  0.5449 -0.6988  0.2452
 4277SOL     OW21019   1.827   0.323   2.757  0.0501 -0.6485 -0.3417
 4277SOL    HW121020   1.781   0.300   2.842  1.5312 -0.3022  0.5624
 4277SOL    HW221021   1.825   0.423   2.744  0.6494 -0.6227 -0.2367
 4278SOL     OW21022   7.849   1.025   4.351  0.5892 -0.2552  0.0026
 4278SOL    HW121023   7.878   1.114   4.385  0.1837 -0.5876  1.2280
 4278SOL    HW221024   7.920   0.956   4.371  1.4359 -0.0128 -1.9746
 4279SOL     OW21025   3.895   8.880   1.457 -0.4182 -0.1997 -0.2100
 4279SOL    HW121026   3.892   8.940   1.536 -2.5996  0.8346 -1.0498
 4279SOL    HW221027   3.976   8.901   1.402 -0.9567  1.7044 -0.2898
 4280SOL     OW21028   8.501   8.955   3.685 -0.0212 -0.3233 -0.3765
 4280SOL    HW121029   8.600   8.964   3.685 -0.0770  0.4881 -1.8036
 4280SOL    HW221030   8.472   8.899   3.763  1.4972 -0.0443  0.3983
 4281SOL     OW21031   1.686   3.131   2.923 -0.0804 -0.2285  0.3531
 4281SOL    HW121032   1.700   3.046   2.974 -1.6280 -0.5463  0.2890
 4281SOL    HW221033   1.602   3.124   2.869  0.9020  0.5498 -1.3277
 4282SOL     OW21034   1.602   1.301   0.093 -0.2480  0.2093  0.2963
 4282SOL    HW121035   1.698   1.275   0.098  0.6566  3.3541  0.3892
 4282SOL    HW221036   1.559   1.257   0.014  0.7285 -2.7534  1.3744
 4283SOL     OW21037   1.472   6.193   0.689 -0.4739  0.0963 -0.2344
 4283SOL    HW121038   1.413   6.162   0.615 -2.3303  0.3022  1.1257
 4283SOL    HW221039   1.429   6.173   0.777  1.9205 -0.6285  0.8355
 4284SOL     OW21040   3.185   9.380   0.022  0.3483 -0.5951 -0.0224
 4284SOL    HW121041   3.279   9.414   0.019 -0.2166  1.1904  1.7206
 4284SOL    HW221042   3.130   9.428  -0.046 -0.0176  0.6568  1.1439
 4285SOL     OW21043   8.705   2.458   4.258 -0.4188 -0.9356  0.6134
 4285SOL    HW121044   8.752   2.373   4.235 -0.8711 -1.0053 -0.1007
 4285SOL    HW221045   8.741   2.532   4.202 -2.1634 -1.2846 -1.0616
 4286SOL     OW21046   9.587   6.782   0.654 -0.0346  0.1015  0.0110
 4286SOL    HW121047   9.681   6.792   0.686 -0.1494 -0.6968  0.5947
 4286SOL    HW221048   9.587   6.748   0.560  0.2614  0.6431 -0.1903
 4287SOL     OW21049   0.543   7.714   3.133  0.1123  0.3727 -0.3087
 4287SOL    HW121050   0.498   7.631   3.166 -2.2336  1.3486 -0.9386
 4287SOL    HW221051   0.547   7.713   3.033 -0.1184  1.1091 -0.3311
 4289SOL     OW21052   6.131   0.556   0.925  0.5666  0.1135  0.4964
 4289SOL    HW121053   6.177   0.580   1.011  1.4662 -0.6865  0.2388
 4289SOL    HW221054   6.198   0.558   0.850  0.1698 -0.9975  0.1106
 4290SOL     OW21055   0.887   8.875   2.937  0.2815 -0.3924 -0.1167
 4290SOL    HW121056   0.896   8.792   2.992  0.8191  0.0367  0.4613
 4290SOL    HW221057   0.978   8.914   2.922 -0.0884  0.9169  0.9208
 4291SOL     OW21058   7.376   8.852   0.727  0.4727  0.0630  0.4692
 4291SOL    HW121059   7.344   8.937   0.770  1.2571  1.6254 -1.9527
 4291SOL    HW221060   7.360   8.856   0.628  1.0277 -2.3896  0.2447
 4292SOL     OW21061   0.774   8.860   2.665 -0.1380 -0.5278 -0.5535
 4292SOL    HW121062   0.813   8.885   2.754  0.4132  1.8293 -1.4302
 4292SOL    HW221063   0.688   8.909   2.651  1.6788  2.0714 -2.9193
 4294SOL     OW21064   8.158   1.919   0.326 -0.3513 -0.1835  0.5053
 4294SOL    HW121065   8.248   1.947   0.292 -0.3346  0.0044  0.6947
 4294SOL    HW221066   8.104   1.882   0.252  1.0494 -3.3575  0.9901
 4295SOL     OW21067   0.592   9.052   2.706 -0.5444  0.5635 -0.0922
 4295SOL    HW121068   0.545   9.044   2.794  0.8235  0.2800  0.6161
 4295SOL    HW221069   0.529   9.090   2.639 -1.6215  0.7352  0.9929
 4296SOL     OW21070   2.636   2.928   1.018 -0.3205 -0.0002  0.1147
 4296SOL    HW121071   2.650   3.025   1.002  0.0366  0.1375  1.2731
 4296SOL    HW221072   2.538   2.907   1.014 -0.2336 -0.0521 -2.6904
 4297SOL     OW21073   8.776   5.635   4.212 -0.0363  0.6392  0.5008
 4297SOL    HW121074   8.722   5.551   4.199  1.4351 -0.1051 -0.9420
 4297SOL    HW221075   8.721   5.714   4.184  0.1136 -0.2476 -2.4592
 4299SOL     OW21076   0.348   7.191   1.053  0.0907 -0.1276  0.0287
 4299SOL    HW121077   0.376   7.163   1.145  0.5394 -1.2691 -0.4411
 4299SOL    HW221078   0.300   7.279   1.057  0.3257 -0.0573  1.3181
 4301SOL     OW21079   1.664   7.365   4.147  0.1733  0.1413  0.0140
 4301SOL    HW121080   1.737   7.321   4.200 -0.3629 -1.0042 -0.1806
 4301SOL    HW221081   1.687   7.461   4.132  2.9294 -0.7819 -2.2748
 4302SOL     OW21082   9.729   5.009   4.076  0.0643 -0.3711  0.7672
 4302SOL    HW121083   9.797   5.064   4.124  0.2242  0.6623 -0.5963
 4302SOL    HW221084   9.775   4.937   4.024  0.2580  0.9739 -1.0025
 4303SOL     OW21085   0.147   3.905   3.249  0.7623 -0.5547 -0.3888
 4303SOL    HW121086   0.081   3.876   3.180 -1.6574 -0.2787  1.7407
 4303SOL    HW221087   0.195   3.987   3.217 -0.4147 -0.3600 -1.6933
 4304SOL     OW21088   8.606   6.436   0.829 -0.1918  0.1077  0.2948
 4304SOL    HW121089   8.517   6.470   0.798  0.3159  0.6008 -0.6461
 4304SOL    HW221090   8.610   6.439   0.929 -1.2590  0.0038  0.3446
 4305SOL     OW21091   2.170   2.674   2.328  0.8033 -0.6133 -0.0250
 4305SOL    HW121092   2.135   2.756   2.374 -0.6473 -0.5824 -1.1422
 4305SOL    HW221093   2.260   2.694   2.289  0.8742  0.1610  0.5137
 4306SOL     OW21094   0.659   6.085   1.108  0.2128  0.1720 -0.6171
 4306SOL    HW121095   0.726   6.096   1.035  1.7526 -0.6441  0.6556
 4306SOL    HW221096   0.651   5.989   1.132  1.3406  0.6460  1.7828
 4307SOL     OW21097   6.562   7.915   1.441  0.0866 -0.3820 -0.1733
 4307SOL    HW121098   6.506   7.832   1.447  1.1382 -1.1296 -0.6502
 4307SOL    HW221099   6.654   7.891   1.413  0.3744  0.9704 -0.4036
 4308SOL     OW21100   6.030   0.194   4.347 -0.5348 -0.2091  0.0920
 4308SOL    HW121101   6.024   0.113   4.288 -0.7204  1.0155 -1.5953
 4308SOL    HW221102   6.015   0.167   4.442  0.3486 -2.3052 -0.3432
 4309SOL     OW21103   3.032   9.219   3.228 -0.1596  0.2721  0.3497
 4309SOL    HW121104   3.064   9.292   3.168  0.2651 -1.1465 -1.1722
 4309SOL    HW221105   3.069   9.132   3.197 -0.5552 -0.5837  2.2294
 4310SOL     OW21106   3.337   9.939   1.365 -0.2677  0.2036  0.3338
 4310SOL    HW121107   3.304  10.032   1.348 -0.0378  0.2607  0.1981
 4310SOL    HW221108   3.396   9.910   1.290 -0.1943  0.0141  0.4642
 4311SOL     OW21109   4.840   2.758   1.792 -0.3744  0.3622 -0.1573
 4311SOL    HW121110   4.879   2.716   1.710  0.6290 -0.7272  0.8670
 4311SOL    HW221111   4.843   2.693   1.867  0.9418  2.1740  1.3945
 4312SOL     OW21112   3.530   1.871   0.278 -0.0272  0.3271  0.0322
 4312SOL    HW121113   3.594   1.830   0.343 -2.1246 -2.8039  0.2718
 4312SOL    HW221114   3.518   1.809   0.200 -1.0036  1.9360 -1.1190
 4313SOL     OW21115   2.058   9.166   0.582  0.3627  0.3234  0.1534
 4313SOL    HW121116   2.097   9.110   0.508  1.1873 -0.6957  1.3405
 4313SOL    HW221117   2.123   9.171   0.658 -1.6729 -1.1440  2.0536
 4314SOL     OW21118   2.666   8.141   0.248  0.2435 -0.0047 -0.5677
 4314SOL    HW121119   2.719   8.205   0.303 -1.7198  0.1368  1.1913
 4314SOL    HW221120   2.729   8.082   0.196  2.1289  0.1698  1.4524
 4315SOL     OW21121   2.187   5.011   2.668  0.1212  0.3017  0.1472
 4315SOL    HW121122   2.144   5.053   2.748 -2.3676 -1.1650 -0.3597
 4315SOL    HW221123   2.131   5.029   2.587  0.7104 -1.2478 -0.6220
 4319SOL     OW21124   2.513   1.779   4.228 -0.0625  0.2171 -0.1040
 4319SOL    HW121125   2.557   1.822   4.149  1.0072  0.0588  0.3830
 4319SOL    HW221126   2.454   1.705   4.198  0.6940 -0.1393 -0.7359
 4320SOL     OW21127   0.061   4.763   0.297 -0.0243 -0.4914 -0.5070
 4320SOL    HW121128   0.015   4.850   0.314  0.8811  0.4345 -2.5872
 4320SOL    HW221129   0.077   4.752   0.199  2.3464 -1.7040 -0.0311
 4323SOL     OW21130   5.352   8.082   1.268 -0.2737 -0.5869 -0.2640
 4323SOL    HW121131   5.254   8.063   1.268  0.0836 -2.5678 -1.3909
 4323SOL    HW221132   5.397   8.019   1.332  0.5188 -1.2387 -1.4451
 4324SOL     OW21133   0.370   4.126   3.462  0.5290  0.0392  0.0896
 4324SOL    HW121134   0.321   4.153   3.379  2.3561  2.4763 -0.2551
 4324SOL    HW221135   0.311   4.066   3.518 -2.1128  1.3936 -1.1521
 4325SOL     OW21136   4.248   6.878   3.722  0.9819  0.0112  0.7601
 4325SOL    HW121137   4.189   6.823   3.782 -0.0009 -1.3630 -1.4220
 4325SOL    HW221138   4.217   6.973   3.724 -1.1988 -0.6462 -0.1728
 4326SOL     OW21139   1.710   4.750   1.013  0.3644 -0.0729 -0.3460
 4326SOL    HW121140   1.668   4.683   0.952 -1.2483 -0.6451  1.3371
 4326SOL    HW221141   1.762   4.703   1.084 -1.2813  0.3896  1.2040
 4327SOL     OW21142   0.534   5.624   2.860 -0.2225 -0.2341  0.0600
 4327SOL    HW121143   0.452   5.567   2.855 -0.5687  0.2847 -0.2229
 4327SOL    HW221144   0.543   5.662   2.952 -1.1136  0.8984 -0.3067
 4328SOL     OW21145   2.576   4.555   1.811 -0.4890 -0.1326 -0.3006
 4328SOL    HW121146   2.640   4.498   1.758  2.3425  2.0947  0.6012
 4328SOL    HW221147   2.615   4.571   1.902 -2.3406  1.3439  0.2375
 4329SOL     OW21148   0.865   7.169   3.805  0.3720  0.5425 -0.3956
 4329SOL    HW121149   0.821   7.218   3.881 -0.5330  2.6122 -2.1899
 4329SOL    HW221150   0.944   7.118   3.839 -0.1045  1.3289  1.9584
 4330SOL     OW21151   0.450   0.294   0.373  0.0073 -0.3658 -0.0245
 4330SOL    HW121152   0.450   0.199   0.402 -1.4591 -0.2225  0.4737
 4330SOL    HW221153   0.544   0.323   0.352  1.1330 -0.5143  4.4133
 4332SOL     OW21154   4.151   8.570   2.833 -0.5491 -0.1422  0.4265
 4332SOL    HW121155   4.232   8.571   2.891 -0.7401  0.2294  0.6912
 4332SOL    HW221156   4.078   8.624   2.877 -0.6262  0.3083 -0.2573
 4333SOL     OW21157   3.041   6.916   1.675  0.4421 -0.5019  0.4375
 4333SOL    HW121158   3.025   7.005   1.633 -0.8886  0.2713  2.5131
 4333SOL    HW221159   3.073   6.851   1.606 -0.5346  1.0401 -1.4853
 4336SOL     OW21160   6.246   7.372   2.565 -0.2027 -0.7943  0.5948
 4336SOL    HW121161   6.225   7.439   2.636  1.7219  0.4637  0.0160
 4336SOL    HW221162   6.310   7.304   2.600  0.0776 -0.6642  0.3477
 4338SOL     OW21163   4.533   8.522   2.690 -0.2296  0.3766 -0.2524
 4338SOL    HW121164   4.528   8.425   2.665 -2.1593  0.8657 -1.9102
 4338SOL    HW221165   4.463   8.542   2.758 -0.2725  0.7518 -0.4077
 4340SOL     OW21166   9.845   0.205   0.020 -0.0918 -0.0499 -0.1891
 4340SOL    HW121167   9.914   0.206  -0.052 -0.6917 -0.0875 -0.7799
 4340SOL    HW221168   9.888   0.189   0.108  0.7480  0.8548 -0.4357
 4341SOL     OW21169   6.585   7.827   3.821 -0.5050 -0.3215 -0.3628
 4341SOL    HW121170   6.509   7.764   3.836 -0.1044 -0.5740  0.6172
 4341SOL    HW221171   6.590   7.892   3.897 -0.0155 -0.0243 -0.6469
 4342SOL     OW21172   1.331   6.500   4.050  0.1935  0.5215 -0.8315
 4342SOL    HW121173   1.306   6.576   4.110  1.8983 -0.2529  0.9055
 4342SOL    HW221174   1.346   6.535   3.957  1.7742  2.4894  0.1139
 4343SOL     OW21175   7.951   5.816   2.009 -0.3396 -0.1019 -0.1596
 4343SOL    HW121176   7.936   5.914   2.005  2.2744  0.3247 -0.3618
 4343SOL    HW221177   7.970   5.789   2.104 -2.9884 -0.7402  0.2143
 4344SOL     OW21178   0.418   2.271   3.427 -0.0392 -0.5994 -0.2915
 4344SOL    HW121179   0.391   2.260   3.522  0.4267  1.3275  0.0832
 4344SOL    HW221180   0.517   2.265   3.420 -0.0663 -0.6342 -0.6614
 4345SOL     OW21181   9.766   9.956   1.775 -0.7680  0.0290 -0.0286
 4345SOL    HW121182   9.751   9.857   1.764 -1.9221  0.2780 -0.8512
 4345SOL    HW221183   9.678  10.001   1.792 -0.4178  1.0878 -0.9895
 4346SOL     OW21184   9.185   9.873   1.800 -0.0272 -0.2777 -0.0669
 4346SOL    HW121185   9.259   9.843   1.860 -0.4575 -1.8123 -0.2843
 4346SOL    HW221186   9.173   9.972   1.809  2.7696  0.1660 -0.8507
 4348SOL     OW21187   3.691   9.230   0.124  0.4510  0.2493  0.5532
 4348SOL    HW121188   3.755   9.229   0.046  0.7410  1.9349  0.7633
 4348SOL    HW221189   3.635   9.313   0.120 -0.5790 -0.4059  1.3077
 4349SOL     OW21190   0.189   6.974   3.789  0.2093  0.2340 -0.0360
 4349SOL    HW121191   0.177   6.933   3.698 -1.1925 -0.2332  0.3504
 4349SOL    HW221192   0.285   6.967   3.817  0.9070  1.4555 -1.9923
 4350SOL     OW21193   1.505   9.397   4.130  0.2014 -0.4847 -0.0469
 4350SOL    HW121194   1.472   9.323   4.188  0.1979 -0.3510  0.1229
 4350SOL    HW221195   1.590   9.434   4.167 -0.3994  0.3635  0.5122
 4351SOL     OW21196   1.047   1.224   3.699 -0.5109  0.4443  0.2321
 4351SOL    HW121197   0.967   1.195   3.751  0.0540  1.8459  1.9376
 4351SOL    HW221198   1.017   1.275   3.618 -1.3523  3.4864  2.3712
 4354SOL     OW21199   2.896   7.309   1.705  0.2000 -0.0220  0.0772
 4354SOL    HW121200   2.842   7.332   1.786  1.2558 -3.3053  1.8149
 4354SOL    HW221201   2.992   7.335   1.720  0.5883 -1.5475  0.3486
 4355SOL     OW21202   1.860   5.666   4.410 -0.6308 -0.2520  0.3746
 4355SOL    HW121203   1.774   5.682   4.458  0.3843 -0.4287  2.3248
 4355SOL    HW221204   1.845   5.603   4.334 -2.6470  1.5683 -0.8040
 4357SOL     OW21205   2.750   0.215   3.105 -0.2454 -0.0271 -0.3856
 4357SOL    HW121206   2.806   0.137   3.133 -0.9488 -1.5231 -3.0540
 4357SOL    HW221207   2.809   0.296   3.095  0.9995 -0.9493 -0.5978
 4358SOL     OW21208   8.023   3.301   1.654 -0.7146 -0.0174 -0.0488
 4358SOL    HW121209   7.933   3.258   1.665 -0.9769  0.3035 -0.8777
 4358SOL    HW221210   8.073   3.295   1.741 -1.4889 -0.2957  0.3924
 4359SOL     OW21211   5.303   2.906   0.337 -0.1881 -0.4392 -0.3091
 4359SOL    HW121212   5.296   2.836   0.265 -0.4538  0.0070 -0.7231
 4359SOL    HW221213   5.238   2.980   0.317  0.9788  0.5347 -0.5597
 4360SOL     OW21214   6.356   8.154   3.788  0.2468  0.1915  0.1165
 4360SOL    HW121215   6.376   8.251   3.776 -0.4365  0.5142  1.4305
 4360SOL    HW221216   6.433   8.109   3.833  0.1965  0.3208  0.3362
 4361SOL     OW21217   8.152   0.828   3.316 -0.0448 -0.4342  0.3418
 4361SOL    HW121218   8.072   0.842   3.374 -0.5773  3.5229 -1.1475
 4361SOL    HW221219   8.230   0.878   3.354  0.7227 -1.2275 -0.1658
 4362SOL     OW21220   3.662   6.864   2.974  0.2054 -0.1642 -0.2312
 4362SOL    HW121221   3.654   6.805   3.054 -1.1562 -2.1341 -1.7456
 4362SOL    HW221222   3.705   6.813   2.899  0.9216  1.4423 -0.9251
 4363SOL     OW21223   8.583   9.903   1.329 -0.1838 -0.4039 -0.5899
 4363SOL    HW121224   8.485   9.924   1.326 -0.2424 -0.7186 -0.8693
 4363SOL    HW221225   8.599   9.828   1.394  0.1574  1.1903  1.2265
 4364SOL     OW21226   6.385   1.150   3.997 -0.0869  0.4797  0.0110
 4364SOL    HW121227   6.417   1.061   4.031  1.4591  1.5230  1.3969
 4364SOL    HW221228   6.326   1.136   3.917 -0.1751 -1.8014  0.4300
 4365SOL     OW21229   9.491   6.257   0.189 -0.3157  0.3724  0.1992
 4365SOL    HW121230   9.401   6.297   0.170  0.4584  2.6696  1.2071
 4365SOL    HW221231   9.538   6.240   0.102 -0.3086  2.5355 -0.2456
 4366SOL     OW21232   0.124   8.858   0.093  0.2026  0.1477 -0.1871
 4366SOL    HW121233   0.075   8.841   0.178 -1.3337  0.8050 -0.9192
 4366SOL    HW221234   0.159   8.772   0.056 -0.9181 -0.4159  0.0459
 4369SOL     OW21235   7.956   5.636   0.916  0.2646  0.2157 -0.6181
 4369SOL    HW121236   7.938   5.554   0.862  1.8049 -0.8136  0.3900
 4369SOL    HW221237   7.984   5.710   0.855  1.1252 -0.6816 -1.3477
 4370SOL     OW21238   4.777   4.930   0.443  0.0132 -0.3071  0.1719
 4370SOL    HW121239   4.834   4.976   0.510 -0.5655  1.5245 -0.5583
 4370SOL    HW221240   4.680   4.944   0.467 -0.2108  0.8940 -1.3547
 4371SOL     OW21241   9.958   0.529   3.597 -0.1825 -0.2443  0.3456
 4371SOL    HW121242   9.890   0.602   3.590 -1.1593 -1.3443 -2.3980
 4371SOL    HW221243   9.944   0.480   3.683  0.2079  2.4590  2.0160
 4373SOL     OW21244   3.427   4.773   3.064  0.1486  0.0972  0.2332
 4373SOL    HW121245   3.511   4.758   3.012 -0.4044 -1.2855 -0.3030
 4373SOL    HW221246   3.442   4.844   3.133  0.7241  2.3813 -2.1799
 4374SOL     OW21247   2.253   7.557   2.665 -0.6964 -0.1016  0.1666
 4374SOL    HW121248   2.224   7.653   2.662 -1.8473 -0.4045  1.2267
 4374SOL    HW221249   2.352   7.553   2.680 -0.5069  0.9126 -0.6929
 4376SOL     OW21250   3.018   9.858   4.194  0.2088 -0.3318 -0.0195
 4376SOL    HW121251   3.016   9.790   4.120 -0.3524 -0.0534 -0.2654
 4376SOL    HW221252   3.112   9.891   4.206  0.5065 -1.2348  0.1821
 4377SOL     OW21253   0.103   0.414   2.572  0.1895  0.2947 -0.0823
 4377SOL    HW121254   0.200   0.433   2.557  0.4344 -1.4646 -0.8767
 4377SOL    HW221255   0.053   0.500   2.586  1.8344  1.2113  0.1909
 4378SOL     OW21256   6.144   0.926   2.646  0.3850 -0.2788 -0.0618
 4378SOL    HW121257   6.207   0.896   2.575  0.1476  0.7266 -0.6982
 4378SOL    HW221258   6.150   1.025   2.658 -0.5511 -0.2668  0.3772
 4379SOL     OW21259   2.716   5.820   3.842 -0.0990  0.1799  0.1582
 4379SOL    HW121260   2.642   5.829   3.775  1.5967 -1.8036 -2.0697
 4379SOL    HW221261   2.801   5.851   3.801  0.6051  0.9059  2.1466
 4380SOL     OW21262   5.355   1.587   2.493 -0.1593  0.3169  0.2948
 4380SOL    HW121263   5.427   1.585   2.562  0.4944  1.2699 -0.3297
 4380SOL    HW221264   5.391   1.630   2.409 -1.4903  0.9582  0.0337
 4382SOL     OW21265   3.700   2.296   3.285 -0.4647  0.1070  0.2408
 4382SOL    HW121266   3.773   2.232   3.308 -0.8863 -0.8146 -0.9053
 4382SOL    HW221267   3.664   2.337   3.369  0.3325 -0.5796  0.9335
 4383SOL     OW21268   1.847   3.526   2.831 -0.2700 -0.0123  0.7922
 4383SOL    HW121269   1.903   3.487   2.904  0.9581 -0.2143 -0.2318
 4383SOL    HW221270   1.819   3.452   2.769  1.0444  0.5278 -0.4801
 4384SOL     OW21271   2.134   1.082   3.405  0.1221 -0.0301  0.0377
 4384SOL    HW121272   2.075   1.134   3.343 -0.8038 -1.4865 -0.3163
 4384SOL    HW221273   2.123   1.117   3.499 -0.4191  0.4647 -0.2070
 4385SOL     OW21274   4.197   6.605   2.964 -0.5357  0.1906 -0.4484
 4385SOL    HW121275   4.157   6.515   2.948  4.2020 -2.0534 -0.4151
 4385SOL    HW221276   4.219   6.615   3.061  1.0128  0.4880 -0.8269
 4386SOL     OW21277   3.716   5.066   4.120 -0.3003 -0.5361 -0.8128
 4386SOL    HW121278   3.617   5.081   4.131 -0.4223 -0.5453 -1.9005
 4386SOL    HW221279   3.731   4.995   4.052  0.3885 -2.6380  1.4558
 4387SOL     OW21280   3.138   6.590   0.395  0.4323 -0.7695 -0.0768
 4387SOL    HW121281   3.076   6.664   0.421 -0.0513 -0.9621 -0.6739
 4387SOL    HW221282   3.139   6.521   0.468 -1.9495 -1.9584 -1.1044
 4388SOL     OW21283   9.654   0.692   3.859 -0.1341 -0.6427 -0.0873
 4388SOL    HW121284   9.663   0.594   3.878 -0.5775 -1.1400 -2.2207
 4388SOL    HW221285   9.699   0.745   3.930  2.5335 -2.5038 -0.3287
 4389SOL     OW21286   1.867   4.330   2.769 -0.0343 -0.2477  0.1825
 4389SOL    HW121287   1.801   4.405   2.762  0.3758  0.0992 -0.0510
 4389SOL    HW221288   1.849   4.277   2.852 -0.3621  0.0793  0.3214
 4390SOL     OW21289   0.760   0.260   4.208 -0.1137 -0.0659 -0.0108
 4390SOL    HW121290   0.860   0.265   4.204 -0.0691  0.6531  1.6152
 4390SOL    HW221291   0.728   0.291   4.297 -1.8219 -0.0031 -0.6125
 4391SOL     OW21292   7.337   9.042   4.240  0.6209  0.0693  0.3211
 4391SOL    HW121293   7.411   8.976   4.253  0.2815 -0.2381  0.7476
 4391SOL    HW221294   7.297   9.065   4.329 -1.0939 -1.2977 -0.0661
 4392SOL     OW21295   0.566   3.595   3.133  0.5298 -0.4626  0.1378
 4392SOL    HW121296   0.611   3.514   3.170  0.5838 -1.4642 -2.0275
 4392SOL    HW221297   0.527   3.573   3.043 -3.5164  0.5950  1.5280
 4393SOL     OW21298   9.184   1.179   2.907  0.3334  0.4452  0.3757
 4393SOL    HW121299   9.160   1.233   2.826 -0.8420 -1.0199 -0.2814
 4393SOL    HW221300   9.155   1.227   2.989  0.1278  1.2327 -0.1499
 4395SOL     OW21301   8.487   7.221   2.257 -0.4495 -0.4154 -0.2808
 4395SOL    HW121302   8.395   7.180   2.252 -1.2127  1.2957 -0.7777
 4395SOL    HW221303   8.483   7.315   2.223  1.9156 -0.9844 -2.3411
 4398SOL     OW21304   2.935   2.557   4.167 -0.1593 -0.1504 -0.4592
 4398SOL    HW121305   2.904   2.611   4.245 -0.3252  0.6928 -1.1001
 4398SOL    HW221306   3.035   2.550   4.169 -0.1335  0.2338 -0.4038
 4400SOL     OW21307   5.103   7.862   4.330 -0.2046  0.3668  0.0008
 4400SOL    HW121308   5.137   7.950   4.363 -0.7828  0.2099  1.0379
 4400SOL    HW221309   5.134   7.847   4.236  2.0333  0.5385  0.6723
 4401SOL     OW21310   8.519   4.278   3.574 -0.2461  0.0940  0.0822
 4401SOL    HW121311   8.502   4.282   3.475  0.3609  0.4772 -0.0079
 4401SOL    HW221312   8.460   4.208   3.615 -0.4620 -0.1030 -0.5578
 4402SOL     OW21313   0.238   4.865   2.322  0.5944  0.1985 -0.1771
 4402SOL    HW121314   0.319   4.921   2.338  1.1818 -1.0235  1.2228
 4402SOL    HW221315   0.258   4.769   2.342 -0.4534 -0.5226 -2.3410
 4404SOL     OW21316   1.100   2.339   1.963  0.2373  0.0504 -0.1853
 4404SOL    HW121317   1.062   2.389   2.040 -0.5149  0.0221 -0.5257
 4404SOL    HW221318   1.183   2.292   1.991  0.4776  0.7912  0.3601
 4405SOL     OW21319   8.371   1.366   1.283 -0.7896  0.7168 -0.7320
 4405SOL    HW121320   8.307   1.386   1.357 -0.6816  0.1081 -0.4739
 4405SOL    HW221321   8.327   1.386   1.195 -1.7583 -0.8095 -0.6176
 4406SOL     OW21322   7.972   7.769   3.804 -0.1077 -0.4249 -0.1128
 4406SOL    HW121323   8.037   7.718   3.861 -1.0689 -2.9578 -1.1725
 4406SOL    HW221324   7.885   7.777   3.851 -0.5900 -1.6185 -0.7820
 4407SOL     OW21325   5.074   6.997   2.707  0.1070  0.2189 -0.0770
 4407SOL    HW121326   5.040   6.962   2.794  0.2194  0.2762 -0.0103
 4407SOL    HW221327   5.049   7.093   2.698 -0.8939 -0.0749 -0.6060
 4409SOL     OW21328   7.079   7.937   3.860  0.0775 -0.4742 -0.5144
 4409SOL    HW121329   7.172   7.944   3.895 -0.1469 -2.2922  0.4903
 4409SOL    HW221330   7.070   7.855   3.803 -0.7155  0.1011 -1.2421
 4410SOL     OW21331   9.502   2.967   1.615  0.0226 -0.3077 -0.1060
 4410SOL    HW121332   9.427   2.949   1.551 -1.4480 -0.0881  1.5373
 4410SOL    HW221333   9.548   3.052   1.589  0.1582 -0.8098 -1.5360
 4411SOL     OW21334   1.043   8.494   1.032  0.6695 -0.3789  0.5481
 4411SOL    HW121335   1.036   8.401   0.997  0.5754 -0.3776  0.5637
 4411SOL    HW221336   0.990   8.556   0.974  0.5155 -0.3752  0.6905
 4412SOL     OW21337   4.721   2.980   3.775  0.0418  0.0397 -0.0708
 4412SOL    HW121338   4.686   3.059   3.724  0.2523  0.7290  0.8247
 4412SOL    HW221339   4.821   2.981   3.773  0.0462 -0.1484  0.0245
 4414SOL     OW21340   0.254   2.870   0.584 -0.7425 -0.2610  0.4953
 4414SOL    HW121341   0.314   2.824   0.651  0.7127  1.4762  0.4008
 4414SOL    HW221342   0.181   2.917   0.633 -0.5993 -0.3106  0.7614
 4415SOL     OW21343   8.679   8.765   2.122  0.4144 -0.6234 -0.3733
 4415SOL    HW121344   8.615   8.690   2.103  2.2890 -2.1160 -0.9013
 4415SOL    HW221345   8.700   8.766   2.220 -0.3180 -0.2159 -0.2206
 4416SOL     OW21346   2.895   7.574   2.875  0.7087 -0.2005 -0.6808
 4416SOL    HW121347   2.916   7.672   2.880 -0.7532  0.1331 -0.8158
 4416SOL    HW221348   2.919   7.539   2.785 -0.8271  0.5454 -1.3920
 4417SOL     OW21349   8.981   9.469   3.156 -0.0126 -0.8653  0.0418
 4417SOL    HW121350   9.023   9.479   3.066  0.3143 -1.4548  0.1271
 4417SOL    HW221351   9.047   9.495   3.227 -0.1863 -0.6466  0.1226
 4418SOL     OW21352   4.537   3.982   3.490 -0.4803  0.7365  0.2681
 4418SOL    HW121353   4.524   3.885   3.471  0.4520  0.8048 -0.7713
 4418SOL    HW221354   4.631   3.999   3.519 -0.4038  1.4344 -0.3557
 4419SOL     OW21355   3.200   6.067   2.106  0.2666 -0.0804 -0.0403
 4419SOL    HW121356   3.144   6.126   2.165 -0.9297  0.6177 -1.8587
 4419SOL    HW221357   3.279   6.035   2.158  0.5908  2.5855  1.1996
 4420SOL     OW21358   6.356   1.711   3.987 -0.4623 -0.4652 -0.4781
 4420SOL    HW121359   6.323   1.641   4.050 -0.7491 -1.6523 -1.9151
 4420SOL    HW221360   6.455   1.721   3.998 -0.4695 -0.8497 -0.0319
 4421SOL     OW21361   5.225   1.688   3.211  0.7094 -0.7258  0.6433
 4421SOL    HW121362   5.194   1.783   3.206  0.3912 -0.8908 -0.5311
 4421SOL    HW221363   5.231   1.649   3.119 -1.1708 -2.4967  1.2183
 4422SOL     OW21364   4.211   1.134   0.296 -0.7842  0.0668 -0.3067
 4422SOL    HW121365   4.162   1.194   0.233 -1.5080 -1.6054 -1.3703
 4422SOL    HW221366   4.264   1.067   0.244  0.3172 -0.0023  0.8642
 4423SOL     OW21367   0.415   7.768   0.899  0.1646 -0.7611  0.5566
 4423SOL    HW121368   0.415   7.779   0.998  1.6731  0.5142  0.4309
 4423SOL    HW221369   0.324   7.793   0.863 -0.6774 -2.1298  1.6841
 4424SOL     OW21370   9.554   0.948   3.179  0.9215 -0.1811  0.3646
 4424SOL    HW121371   9.644   0.931   3.220 -0.3958 -3.5891  1.9894
 4424SOL    HW221372   9.494   0.989   3.248  0.6522  0.2729 -0.1399
 4425SOL     OW21373   8.985   5.552   3.515 -0.4395  0.2171 -0.1564
 4425SOL    HW121374   8.906   5.491   3.519 -0.0630 -0.2003  1.1013
 4425SOL    HW221375   8.984   5.615   3.593  0.2133  0.5231 -0.3850
 4427SOL     OW21376   7.061   8.119   1.909  0.5458  0.4871 -0.4969
 4427SOL    HW121377   7.064   8.217   1.928 -2.1746  0.4847  0.2009
 4427SOL    HW221378   7.072   8.104   1.811 -0.7136  1.6350 -0.8288
 4428SOL     OW21379   2.934   8.132   1.315 -0.2834 -0.1601 -0.6141
 4428SOL    HW121380   2.964   8.105   1.406  0.3796 -1.3276 -1.1703
 4428SOL    HW221381   2.990   8.209   1.283  0.9036 -1.1395 -0.9028
 4429SOL     OW21382   6.600   1.139   2.776  0.5383 -0.5885 -0.4748
 4429SOL    HW121383   6.561   1.221   2.818 -1.5719 -1.7604 -0.0939
 4429SOL    HW221384   6.569   1.132   2.682  0.2572 -1.2558 -0.3328
 4430SOL     OW21385   9.565   0.935   2.460  0.1919  0.4307  0.4868
 4430SOL    HW121386   9.584   0.914   2.364 -0.1210  0.3178  0.4479
 4430SOL    HW221387   9.510   0.861   2.500 -0.1075  0.7185  0.6137
 4431SOL     OW21388   3.191   1.627   0.425 -0.5450  0.1728 -0.8108
 4431SOL    HW121389   3.184   1.727   0.426  0.4967  0.2700 -1.5460
 4431SOL    HW221390   3.245   1.596   0.504 -1.5765  0.1183 -0.1181
 4432SOL     OW21391   4.227   9.519   3.948 -0.1926 -0.2268 -0.1825
 4432SOL    HW121392   4.198   9.506   4.043  0.7306  2.2405  0.4629
 4432SOL    HW221393   4.149   9.553   3.894 -0.4860 -0.7988 -0.1235
 4433SOL     OW21394   9.855   5.114   1.918  0.0306 -0.1689  0.8170
 4433SOL    HW121395   9.835   5.038   1.980 -0.5911  0.1104  0.9645
 4433SOL    HW221396   9.950   5.143   1.930  0.3983 -1.1935  0.4620
 4434SOL     OW21397   4.516   2.150   1.525  0.3736  0.6546 -0.4841
 4434SOL    HW121398   4.592   2.130   1.587  1.2810  4.4731 -0.1921
 4434SOL    HW221399   4.506   2.076   1.459  3.8956 -0.3075 -0.0570
 4435SOL     OW21400   5.628   2.234   2.542 -0.2264 -0.2359  0.1632
 4435SOL    HW121401   5.650   2.140   2.515  1.7089  0.5069 -1.0086
 4435SOL    HW221402   5.631   2.293   2.461  0.2891  1.1177  1.1483
 4438SOL     OW21403   2.028   5.432   0.724  0.1320  0.2250  0.5969
 4438SOL    HW121404   1.950   5.387   0.768  0.0296  0.1112  0.3004
 4438SOL    HW221405   2.113   5.394   0.760  0.0639  1.0510  1.6540
 4439SOL     OW21406   2.837   0.687   2.251 -0.2500 -0.3333  0.2834
 4439SOL    HW121407   2.933   0.703   2.274 -0.5312 -0.0304  1.2677
 4439SOL    HW221408   2.778   0.722   2.325 -1.0349 -2.5831  0.7505
 4440SOL     OW21409   0.239   0.935   1.942 -0.3659  0.0107  0.0735
 4440SOL    HW121410   0.334   0.961   1.924 -0.6590 -0.1002 -1.7211
 4440SOL    HW221411   0.180   1.015   1.932 -0.9112 -0.6708 -2.6298
 4441SOL     OW21412   6.013   6.968   3.856  0.0256 -0.7249  0.5280
 4441SOL    HW121413   5.949   6.899   3.822 -0.7832  0.9277 -1.4850
 4441SOL    HW221414   5.965   7.056   3.862  1.7838  0.2671  0.2008
 4442SOL     OW21415   4.047   6.423   2.101 -0.3777  0.3474 -0.3433
 4442SOL    HW121416   4.023   6.336   2.143  0.5392  0.1550 -0.2163
 4442SOL    HW221417   4.065   6.410   2.004 -2.7852  0.8412 -0.9007
 4443SOL     OW21418   4.790   0.361   0.421  0.0683 -0.5155  0.0101
 4443SOL    HW121419   4.819   0.375   0.327  2.5011  1.8840  1.0446
 4443SOL    HW221420   4.699   0.402   0.434  0.8737  1.5644 -0.6621
 4444SOL     OW21421   6.450   0.402   2.714  0.5109  0.1884  0.1534
 4444SOL    HW121422   6.549   0.396   2.723  0.4715  0.5275  0.7680
 4444SOL    HW221423   6.407   0.380   2.801  0.0160 -0.8211 -0.3417
 4445SOL     OW21424   2.763   8.133   2.042  0.3241  0.1286  0.1897
 4445SOL    HW121425   2.789   8.088   2.128  0.9532  0.2216  0.0466
 4445SOL    HW221426   2.670   8.107   2.018 -0.2452  0.9337  1.4605
 4446SOL     OW21427   0.043   6.561   0.538  0.2203 -0.1493 -0.4733
 4446SOL    HW121428   0.045   6.472   0.494 -1.4575 -1.1756  1.4543
 4446SOL    HW221429   0.102   6.559   0.619 -1.6417 -0.2615  0.9033
 4447SOL     OW21430   4.747   0.702   0.044 -0.4462  0.7928 -0.1376
 4447SOL    HW121431   4.779   0.633   0.110  0.3720  1.5179  0.2348
 4447SOL    HW221432   4.781   0.678  -0.047  1.0026  1.4387  0.2195
 4448SOL     OW21433   7.477   9.098   3.235  0.1859 -0.3540  0.1915
 4448SOL    HW121434   7.399   9.102   3.298  1.4521 -0.4119  1.8098
 4448SOL    HW221435   7.491   9.187   3.193 -1.1048 -0.4940 -0.5576
 4449SOL     OW21436   4.987   6.252   1.793 -0.1834  0.1347 -0.6091
 4449SOL    HW121437   5.021   6.340   1.759  1.5983 -0.7639 -1.2011
 4449SOL    HW221438   4.965   6.260   1.890 -2.8358  2.0203 -1.3259
 4450SOL     OW21439   3.281   8.539   4.196 -0.2612 -0.5438 -0.3906
 4450SOL    HW121440   3.230   8.453   4.192  0.6460 -1.0782 -0.5579
 4450SOL    HW221441   3.278   8.584   4.107 -0.4513 -0.5606 -0.3929
 4452SOL     OW21442   2.198   2.881   1.538  0.5185 -0.0213 -0.3109
 4452SOL    HW121443   2.176   2.979   1.530 -2.3025 -0.5801  0.2100
 4452SOL    HW221444   2.179   2.835   1.451  2.7228  0.0089 -0.8480
 4454SOL     OW21445   9.885   7.129   1.922  0.2837  0.4913  0.3981
 4454SOL    HW121446   9.941   7.058   1.966  0.4223  0.5108  0.2526
 4454SOL    HW221447   9.823   7.169   1.990  1.0407  1.0611  0.7676
 4456SOL     OW21448   0.445   9.361   4.231 -0.0592 -0.0611  0.4087
 4456SOL    HW121449   0.513   9.426   4.265 -1.4035  1.8290 -0.4330
 4456SOL    HW221450   0.383   9.337   4.306  0.9575 -1.0869  0.9446
 4457SOL     OW21451   8.539   9.568   3.870 -0.2105  0.4956  0.2222
 4457SOL    HW121452   8.563   9.493   3.932  1.1992  1.2157  0.5712
 4457SOL    HW221453   8.528   9.532   3.777 -0.0969 -0.2418  0.4954
 4458SOL     OW21454   7.013   1.369   0.682 -0.3332 -0.2963  0.3046
 4458SOL    HW121455   7.032   1.336   0.590 -0.0236  2.3531 -0.6493
 4458SOL    HW221456   6.952   1.306   0.730 -0.2630 -1.8311 -1.6199
 4459SOL     OW21457   3.382   7.416   1.173 -0.8372 -0.2039 -0.3757
 4459SOL    HW121458   3.342   7.384   1.259 -1.6007  0.3220 -0.5282
 4459SOL    HW221459   3.339   7.503   1.147 -0.8052 -0.4991 -1.4336
 4460SOL     OW21460   0.529   7.431   3.921 -0.3522 -0.7291  0.4923
 4460SOL    HW121461   0.445   7.482   3.940  1.3183  1.9245  1.0051
 4460SOL    HW221462   0.532   7.406   3.824 -1.1311  0.3271  0.1876
 4461SOL     OW21463   2.796   1.732   2.216  0.2561 -0.1458  0.2827
 4461SOL    HW121464   2.841   1.684   2.140  0.1264  0.2580 -0.0512
 4461SOL    HW221465   2.781   1.669   2.292  0.3048 -0.5744 -0.0656
 4462SOL     OW21466   3.527   9.052   0.315  0.0551 -0.4399  0.4630
 4462SOL    HW121467   3.568   9.095   0.235  0.4748 -0.5001  0.6462
 4462SOL    HW221468   3.478   9.121   0.368 -0.9552 -0.5549 -0.2994
 4463SOL     OW21469   1.234   7.187   1.714 -0.1546 -0.0930 -0.1804
 4463SOL    HW121470   1.166   7.225   1.776 -0.2284  0.5003 -0.6227
 4463SOL    HW221471   1.190   7.120   1.653 -0.0698 -0.7183  0.4414
 4464SOL     OW21472   8.068   1.723   4.029 -0.6583 -0.1014  0.2981
 4464SOL    HW121473   8.050   1.667   3.948 -0.1396 -0.0300  0.1308
 4464SOL    HW221474   8.046   1.818   4.009 -1.8707 -0.2909  0.6938
 4465SOL     OW21475   0.924   9.959   2.886  0.6259 -0.3093 -0.3393
 4465SOL    HW121476   0.941   9.901   2.966  0.2998 -1.6044 -1.1845
 4465SOL    HW221477   0.844   9.924   2.837  1.1549  0.1424 -1.5336
 4467SOL     OW21478   2.084   3.259   4.128  0.2818  0.4260  0.0229
 4467SOL    HW121479   2.151   3.286   4.059  1.3972  1.5768  1.5234
 4467SOL    HW221480   2.113   3.292   4.218 -1.2721 -0.8320  1.0198
 4468SOL     OW21481   7.268   9.849   1.119  0.3537 -0.8608  0.2469
 4468SOL    HW121482   7.273   9.943   1.085  0.4367 -0.9920 -0.1057
 4468SOL    HW221483   7.361   9.811   1.125  0.2353 -1.3403 -0.7977
 4469SOL     OW21484   3.348   2.106   4.027 -0.1699  0.0916 -0.7474
 4469SOL    HW121485   3.378   2.014   4.000  0.9465 -0.1221  1.0924
 4469SOL    HW221486   3.248   2.109   4.031 -0.2836 -0.4574 -2.7529
 4470SOL     OW21487   3.237   2.494   1.590  0.3411  0.1602 -0.3581
 4470SOL    HW121488   3.293   2.472   1.670  1.3294  1.9319 -0.5374
 4470SOL    HW221489   3.262   2.584   1.556 -2.2716  0.7781 -0.7650
 4471SOL     OW21490   8.845   3.256   3.753  0.7599 -0.2244 -0.2957
 4471SOL    HW121491   8.812   3.176   3.702  0.4372  1.0965 -2.2068
 4471SOL    HW221492   8.785   3.271   3.832 -1.2994  0.2014 -1.9075
 4472SOL     OW21493   0.430   9.833   0.461 -0.4329  0.9460  0.2989
 4472SOL    HW121494   0.485   9.811   0.381 -0.6096  0.5040  0.2971
 4472SOL    HW221495   0.348   9.775   0.463  0.2840 -0.0508  1.5618
 4473SOL     OW21496   7.302   8.683   4.295  0.2404 -0.2046 -0.2708
 4473SOL    HW121497   7.395   8.684   4.258 -1.1033  0.1462 -3.8096
 4473SOL    HW221498   7.264   8.591   4.290  0.2285 -0.2774  0.8436
 4474SOL     OW21499   3.769   5.067   2.435 -0.3034 -0.1984  0.1565
 4474SOL    HW121500   3.691   5.080   2.374 -0.5333  0.0068  0.4892
 4474SOL    HW221501   3.844   5.026   2.385 -0.6711 -0.5151 -0.1364
 4475SOL     OW21502   0.591   0.039   3.872  0.2576  0.9589  0.1287
 4475SOL    HW121503   0.689   0.028   3.890  0.1868  0.0202 -0.0133
 4475SOL    HW221504   0.543   0.057   3.958  0.5520  1.3877  0.2024
 4476SOL     OW21505   1.319   2.979   3.996  0.2319 -0.4404 -0.0316
 4476SOL    HW121506   1.382   2.921   3.943  0.4425 -0.5961  0.3877
 4476SOL    HW221507   1.232   2.986   3.948  0.3237 -0.8208 -0.2550
 4478SOL     OW21508   9.819   4.142   3.212  0.1374  0.0086  0.3454
 4478SOL    HW121509   9.816   4.043   3.197 -0.4482  0.2160 -0.9033
 4478SOL    HW221510   9.900   4.180   3.169  0.7369 -0.0255  1.4332
 4479SOL     OW21511   6.664   0.007   1.481  0.0498  0.6662 -0.2024
 4479SOL    HW121512   6.637   0.064   1.559  0.2472 -1.5446  1.5187
 4479SOL    HW221513   6.602  -0.072   1.475  1.0543 -0.0477 -1.2744
 4480SOL     OW21514   0.097   6.593   1.618  0.1177  0.0288  0.4466
 4480SOL    HW121515   0.105   6.661   1.545 -1.4123 -0.0299  0.1976
 4480SOL    HW221516   0.167   6.523   1.606  0.0255  0.1417 -0.8433
 4481SOL     OW21517   4.737   9.511   2.633  0.1950 -0.5096 -0.2846
 4481SOL    HW121518   4.735   9.495   2.534 -0.3455 -0.9921 -0.2062
 4481SOL    HW221519   4.677   9.588   2.655  2.2486  1.1886 -0.5898
 4482SOL     OW21520   2.190   9.586   0.392 -0.2095 -0.1981 -0.6555
 4482SOL    HW121521   2.139   9.672   0.388 -0.5034 -0.2502  1.4614
 4482SOL    HW221522   2.183   9.547   0.483 -0.5225 -2.7726 -1.7232
 4483SOL     OW21523   9.274   1.792   0.200 -0.4009 -0.3371 -0.1252
 4483SOL    HW121524   9.248   1.863   0.265  0.4573  1.2684 -1.4886
 4483SOL    HW221525   9.332   1.724   0.246  1.4498  1.5759  0.4698
 4485SOL     OW21526   0.330   3.312   2.566 -0.2511  0.0823  0.2155
 4485SOL    HW121527   0.429   3.325   2.574  0.0234 -1.7761 -0.0784
 4485SOL    HW221528   0.309   3.274   2.476 -1.3767  1.6678 -0.2243
 4486SOL     OW21529   1.750   7.156   2.669  0.3697 -0.3189 -1.0098
 4486SOL    HW121530   1.650   7.155   2.666  0.3134 -1.5482  1.0378
 4486SOL    HW221531   1.785   7.064   2.652  1.1994  0.1944 -2.2023
 4487SOL     OW21532   7.573   2.211   3.525  0.1515  0.0799  0.0393
 4487SOL    HW121533   7.524   2.288   3.482 -1.0406  0.0660  1.3521
 4487SOL    HW221534   7.511   2.133   3.532  1.4962 -1.1844 -1.7068
 4489SOL     OW21535   4.070   7.492   1.917  0.4370 -0.2808  0.3240
 4489SOL    HW121536   4.032   7.564   1.974  0.5848  0.4667 -0.4973
 4489SOL    HW221537   4.122   7.428   1.973 -1.2347 -0.7940  1.3226
 4490SOL     OW21538   3.841   3.072   4.028  0.0262 -0.1131 -0.3745
 4490SOL    HW121539   3.789   3.046   3.946  0.1899 -1.4678 -0.0682
 4490SOL    HW221540   3.813   3.013   4.104  1.3157 -0.2043  0.0350
 4491SOL     OW21541   0.177   4.788   1.197  0.3766 -0.7374  0.3131
 4491SOL    HW121542   0.147   4.712   1.139 -0.9769 -0.9931  1.3070
 4491SOL    HW221543   0.101   4.853   1.207  0.5914 -0.7119  1.8097
 4492SOL     OW21544   8.652   6.336   3.513  0.0338 -0.0094 -0.1565
 4492SOL    HW121545   8.584   6.349   3.441 -0.7974  2.4031  1.0173
 4492SOL    HW221546   8.710   6.258   3.491 -2.3759 -1.3986 -1.7552
 4493SOL     OW21547   4.441   4.618   1.720 -0.3508 -0.5010 -0.1886
 4493SOL    HW121548   4.434   4.538   1.780 -0.8437 -1.4081 -1.4384
 4493SOL    HW221549   4.383   4.605   1.640  0.2249  0.7398 -0.8209
 4495SOL     OW21550   3.575   2.647   3.693  0.2720 -0.1157 -0.7842
 4495SOL    HW121551   3.499   2.683   3.640 -3.0856 -1.4742  2.8311
 4495SOL    HW221552   3.618   2.722   3.744 -0.8230  0.1873 -0.2845
 4496SOL     OW21553   4.662   0.004   3.057  0.3660  0.0378  0.0504
 4496SOL    HW121554   4.664  -0.095   3.067  2.6860  0.0684  0.1221
 4496SOL    HW221555   4.604   0.043   3.128 -1.3565 -1.3144 -0.5710
 4497SOL     OW21556   0.819   1.505   2.863 -0.2900 -0.2525 -0.0342
 4497SOL    HW121557   0.790   1.561   2.785  0.0635 -0.3558 -0.2440
 4497SOL    HW221558   0.900   1.546   2.904  1.2326 -1.7154 -1.4787
 4498SOL     OW21559   2.432   8.566   3.791 -0.7151  0.5895 -0.2086
 4498SOL    HW121560   2.459   8.570   3.887 -0.4048  0.6821 -0.2996
 4498SOL    HW221561   2.502   8.609   3.735 -0.8526  0.4533 -0.4859
 4499SOL     OW21562   9.811   3.866   2.158 -0.6508  0.0424  0.2685
 4499SOL    HW121563   9.779   3.862   2.063  1.0346  2.6804 -0.4597
 4499SOL    HW221564   9.773   3.788   2.209 -2.7122 -0.6494 -2.1922
 4500SOL     OW21565   1.031   3.745   4.135  0.2235  0.4202  0.6591
 4500SOL    HW121566   1.065   3.766   4.227  1.5262 -1.5900  0.6708
 4500SOL    HW221567   1.042   3.826   4.077  1.4840  1.0233  1.6947
 4501SOL     OW21568   2.238   2.134   0.695  0.8909 -0.0176  0.3106
 4501SOL    HW121569   2.231   2.042   0.733 -0.5042 -0.0285  0.0631
 4501SOL    HW221570   2.294   2.191   0.755  1.0610 -0.7989  0.8994
 4502SOL     OW21571   1.394   7.131   0.304 -0.0211 -0.2754  0.3177
 4502SOL    HW121572   1.341   7.067   0.359  0.9229  0.4734  2.1494
 4502SOL    HW221573   1.461   7.081   0.250 -1.3737 -1.0698 -0.6689
 4503SOL     OW21574   3.514   7.106   1.484  0.1185  0.4907 -0.4199
 4503SOL    HW121575   3.443   7.058   1.432 -0.4314  0.2413  0.5390
 4503SOL    HW221576   3.534   7.194   1.440  0.0560  0.0466 -1.3482
 4505SOL     OW21577   1.716   0.478   1.744  0.2940  0.0309 -0.0676
 4505SOL    HW121578   1.687   0.497   1.837 -1.2094  1.4064 -0.7783
 4505SOL    HW221579   1.808   0.515   1.729  0.3615  0.1873  0.7283
 4506SOL     OW21580   9.370   7.726   2.694  0.2923 -0.5005  0.5392
 4506SOL    HW121581   9.449   7.718   2.756  0.2221 -0.5009  0.6299
 4506SOL    HW221582   9.290   7.686   2.738  0.4300 -1.2640  0.1051
 4507SOL     OW21583   9.908   9.665   0.937 -0.1884  0.7629 -0.2016
 4507SOL    HW121584   9.850   9.584   0.946 -1.3910  1.8271  2.1521
 4507SOL    HW221585   9.951   9.666   0.847  1.0440 -3.2451  0.2787
 4508SOL     OW21586   0.349   9.604   1.599 -0.6838  0.3371  0.0457
 4508SOL    HW121587   0.399   9.655   1.529 -1.8948  0.4869 -0.7260
 4508SOL    HW221588   0.411   9.541   1.646  0.3669  1.0210 -0.4235
 4509SOL     OW21589   7.233   2.978   0.621 -0.0322  0.2107  0.1113
 4509SOL    HW121590   7.282   2.894   0.641 -0.9099 -0.1111  0.9330
 4509SOL    HW221591   7.211   3.025   0.706  0.2429  1.1536 -0.3279
 4510SOL     OW21592   8.732   2.932   1.785  0.2031  0.5677  0.4368
 4510SOL    HW121593   8.799   2.877   1.834  0.1237 -0.0684 -0.1669
 4510SOL    HW221594   8.762   3.028   1.783  1.3304  0.2118 -0.2518
 4511SOL     OW21595   2.471   4.039   0.907  0.2157 -0.0757 -0.3463
 4511SOL    HW121596   2.555   4.079   0.943 -0.4648  0.1201  1.0647
 4511SOL    HW221597   2.395   4.103   0.922 -0.4991 -0.9991  0.0031
 4512SOL     OW21598   4.071   2.142   0.459 -0.5019  0.0676  0.0106
 4512SOL    HW121599   4.125   2.063   0.488 -1.0025 -0.0321  0.6765
 4512SOL    HW221600   3.990   2.110   0.410  0.1423  0.2232 -1.1885
 4513SOL     OW21601   7.958   2.214   1.693 -0.5136  0.8034 -0.4633
 4513SOL    HW121602   8.034   2.236   1.754 -1.9527  1.0527  1.2700
 4513SOL    HW221603   7.871   2.227   1.741 -1.6235 -1.1347 -1.8679
 4514SOL     OW21604   6.859   1.283   4.059 -0.1326  0.1675  0.3978
 4514SOL    HW121605   6.848   1.373   4.100 -1.3336  0.3664 -0.3146
 4514SOL    HW221606   6.822   1.284   3.966  1.5205 -0.5716 -0.2897
 4516SOL     OW21607   6.108   7.106   1.858  0.0425  0.0365 -0.0461
 4516SOL    HW121608   6.048   7.137   1.784 -0.3838 -1.4945 -0.3607
 4516SOL    HW221609   6.086   7.156   1.941 -0.5377  0.6817 -0.5770
 4517SOL     OW21610   2.794   4.894   0.064 -0.6795 -0.8238 -0.1514
 4517SOL    HW121611   2.885   4.895   0.021 -0.9023  2.0594 -0.6432
 4517SOL    HW221612   2.744   4.976   0.038 -2.6182 -1.3045  1.9090
 4519SOL     OW21613   6.913   0.223   0.284 -0.4266  0.2043 -0.1278
 4519SOL    HW121614   6.919   0.160   0.361 -0.1998 -1.3548 -1.3922
 4519SOL    HW221615   6.985   0.202   0.217 -1.2358  0.8797 -1.2345
 4520SOL     OW21616   1.316   4.580   0.589 -0.1231 -0.2874 -0.1574
 4520SOL    HW121617   1.309   4.674   0.622 -1.3446 -0.0697 -0.9657
 4520SOL    HW221618   1.294   4.578   0.491 -0.3026 -1.4334 -0.0982
 4521SOL     OW21619   4.455   3.990   2.032  0.0089 -0.4077 -0.4940
 4521SOL    HW121620   4.369   3.951   2.066 -0.3803  1.3068  0.5473
 4521SOL    HW221621   4.473   3.955   1.940 -2.2091 -0.1939 -1.0407
 4522SOL     OW21622   9.631   2.290   0.545 -0.4081 -0.4466  0.1202
 4522SOL    HW121623   9.609   2.222   0.476  1.3568 -0.3584 -0.5682
 4522SOL    HW221624   9.547   2.328   0.584 -1.4240  0.1820 -2.6319
 4524SOL     OW21625   2.712   4.269   2.815  0.7545  0.2189  0.1795
 4524SOL    HW121626   2.789   4.331   2.803  1.5486 -0.3571  2.1972
 4524SOL    HW221627   2.665   4.291   2.900  0.5175 -1.3998  0.4684
 4525SOL     OW21628   8.972   4.285   3.140 -0.4333  0.4388 -0.1644
 4525SOL    HW121629   9.008   4.356   3.201  0.1137 -0.2559  0.3266
 4525SOL    HW221630   8.884   4.253   3.176 -0.6151  0.7736 -0.3116
 4526SOL     OW21631   2.018   1.437   0.776  0.2924 -0.3741 -0.2088
 4526SOL    HW121632   1.989   1.465   0.868  1.7458 -0.6525  0.3548
 4526SOL    HW221633   1.943   1.389   0.731 -1.1941  1.7440 -0.0388
 4527SOL     OW21634   9.625   3.018   1.901  0.6002  0.4349  0.4483
 4527SOL    HW121635   9.651   2.924   1.922  2.2498  0.2627 -2.0555
 4527SOL    HW221636   9.598   3.024   1.805  3.2861  3.0022 -0.2363
 4528SOL     OW21637   0.023   9.118   0.689  0.0932 -0.4176 -0.2377
 4528SOL    HW121638  -0.022   9.033   0.662  0.2535 -0.1010 -1.5587
 4528SOL    HW221639   0.096   9.098   0.754 -1.1071 -1.0699  0.9296
 4531SOL     OW21640   1.808   4.169   3.671 -0.8897 -0.2682 -0.3691
 4531SOL    HW121641   1.712   4.190   3.690 -0.4646  1.1277  0.3269
 4531SOL    HW221642   1.841   4.228   3.597  0.1261  1.1153  1.1340
 4532SOL     OW21643   1.536   6.540   2.990  0.7264 -0.1364 -0.3923
 4532SOL    HW121644   1.612   6.538   2.926  0.7217 -2.4546 -0.3771
 4532SOL    HW221645   1.550   6.613   3.057  1.8259  0.8635 -1.6972
 4533SOL     OW21646   2.365   1.824   3.130  0.0323 -0.3317  0.1115
 4533SOL    HW121647   2.370   1.772   3.216  0.2023  0.8252  0.8065
 4533SOL    HW221648   2.283   1.796   3.079  1.0684 -2.5733 -0.3785
 4534SOL     OW21649   9.459   5.420   0.873 -0.2646  0.0218  0.0404
 4534SOL    HW121650   9.483   5.483   0.947  1.5898 -1.0275  0.3836
 4534SOL    HW221651   9.473   5.464   0.785 -1.1786  0.8403  0.3062
 4535SOL     OW21652   3.366   2.311   0.580 -0.4044 -0.4571  0.1174
 4535SOL    HW121653   3.387   2.231   0.523  0.3468 -0.2911  0.1565
 4535SOL    HW221654   3.345   2.281   0.673  0.3409 -0.5899  0.2539
 4536SOL     OW21655   1.511   2.583   4.341  0.2395 -0.0860 -0.0270
 4536SOL    HW121656   1.607   2.603   4.361  0.2762  0.3142 -0.5915
 4536SOL    HW221657   1.506   2.509   4.274  0.1361 -0.6556  0.5989
 4537SOL     OW21658   2.085   5.308   4.356  0.2587  0.7200  0.3304
 4537SOL    HW121659   2.054   5.280   4.447  3.5497 -0.3760  1.1786
 4537SOL    HW221660   2.010   5.354   4.308 -2.0270 -0.1334  2.9556
 4538SOL     OW21661   9.483   9.719   1.218 -0.5987 -0.1117  0.1853
 4538SOL    HW121662   9.580   9.732   1.194 -0.2346 -0.2581  1.5076
 4538SOL    HW221663   9.451   9.799   1.270 -1.7700  0.8495 -1.9616
 4539SOL     OW21664   6.359   0.013   2.475  0.3022  0.1507  0.3389
 4539SOL    HW121665   6.459   0.014   2.484  0.4426  1.2531 -1.1080
 4539SOL    HW221666   6.330  -0.076   2.440  0.7014 -0.4264  1.4482
 4541SOL     OW21667   1.462   1.303   4.065 -0.5196 -0.0938  0.3555
 4541SOL    HW121668   1.498   1.397   4.070  1.7655 -0.9485  0.3778
 4541SOL    HW221669   1.404   1.294   3.984 -0.3373  1.1993  0.0617
 4542SOL     OW21670   9.606   3.544   3.276 -0.0721 -0.0172 -0.0994
 4542SOL    HW121671   9.630   3.487   3.198 -0.0743  1.5087 -1.2432
 4542SOL    HW221672   9.598   3.487   3.358  1.5959 -1.3962 -0.8646
 4543SOL     OW21673   1.808   9.324   3.882 -0.1380  0.3072  0.2887
 4543SOL    HW121674   1.750   9.246   3.907  0.1934  0.4435  1.5192
 4543SOL    HW221675   1.892   9.291   3.839 -0.3648  0.0324  0.0525
 4544SOL     OW21676   7.729   7.124   2.632  0.3231  0.1876  0.0904
 4544SOL    HW121677   7.678   7.208   2.650 -0.8123 -0.9109  2.2020
 4544SOL    HW221678   7.800   7.113   2.702 -2.0261 -2.5183  2.1384
 4545SOL     OW21679   7.054   1.101   1.001  0.2970 -0.3747 -0.4490
 4545SOL    HW121680   7.017   1.147   0.920  2.4789  0.2201 -1.1510
 4545SOL    HW221681   7.075   1.006   0.979 -0.3721 -0.5886 -0.1798
 4547SOL     OW21682   4.222   2.936   0.515 -0.3636 -0.2172  0.0765
 4547SOL    HW121683   4.140   2.967   0.466  0.3766 -1.1911 -1.8412
 4547SOL    HW221684   4.213   2.839   0.536  0.6845 -0.5506 -0.9751
 4548SOL     OW21685   3.504   4.548   0.163 -0.5093 -0.0600  0.0201
 4548SOL    HW121686   3.547   4.627   0.208  2.1412 -1.7559  0.5826
 4548SOL    HW221687   3.479   4.573   0.069  0.9383  1.2508 -0.0414
 4549SOL     OW21688   6.379   9.284   1.408  0.8457 -0.1993 -0.1300
 4549SOL    HW121689   6.331   9.366   1.377 -0.8285 -0.4433  1.7011
 4549SOL    HW221690   6.403   9.227   1.329 -0.2676  0.8123 -1.2104
 4550SOL     OW21691   3.690   1.710   0.806 -0.1078  0.1880 -0.2145
 4550SOL    HW121692   3.611   1.757   0.845  0.2556  0.8396 -0.2578
 4550SOL    HW221693   3.750   1.777   0.761  0.5727 -0.2741  0.0028
 4551SOL     OW21694   3.324   6.515   2.132 -0.1963  0.2265  0.7976
 4551SOL    HW121695   3.295   6.476   2.045  2.2330 -3.0913  1.3949
 4551SOL    HW221696   3.358   6.608   2.117 -1.7412  0.4607 -1.4426
 4552SOL     OW21697   6.530   9.830   1.260 -0.5481  0.3008 -0.2522
 4552SOL    HW121698   6.614   9.785   1.231 -0.8976 -0.7072  0.2686
 4552SOL    HW221699   6.471   9.844   1.181 -0.1616  0.4261 -0.5181
 4553SOL     OW21700   6.804   0.189   2.769  0.4942 -0.0243 -0.4633
 4553SOL    HW121701   6.760   0.278   2.774  0.2395 -0.1721 -0.0833
 4553SOL    HW221702   6.860   0.174   2.850  0.6589 -0.1457 -0.5983
 4555SOL     OW21703   0.726   0.548   0.067  0.1396 -0.2673  0.4099
 4555SOL    HW121704   0.750   0.645   0.067 -0.6903 -0.0574 -0.0119
 4555SOL    HW221705   0.637   0.536   0.022  0.2409 -1.2198  0.4646
 4556SOL     OW21706   2.082   1.326   4.128 -0.2708 -0.0445 -0.2017
 4556SOL    HW121707   2.105   1.337   4.225 -0.2670  0.2820 -0.2381
 4556SOL    HW221708   2.004   1.264   4.119  0.4590 -0.9812 -0.0655
 4557SOL     OW21709   2.625   6.024   1.342 -0.7568  0.5425 -0.1538
 4557SOL    HW121710   2.573   5.996   1.262 -1.0745  1.2645 -0.2061
 4557SOL    HW221711   2.579   5.993   1.425 -0.2379 -0.5165 -0.2611
 4558SOL     OW21712   0.385   2.999   1.492  0.1046 -0.7255  0.0611
 4558SOL    HW121713   0.358   3.082   1.541 -3.1782 -0.5985 -1.8144
 4558SOL    HW221714   0.400   3.021   1.396 -0.8692 -2.2674 -0.4692
 4559SOL     OW21715   9.696   3.422   2.545  0.0344 -0.7050 -0.4072
 4559SOL    HW121716   9.633   3.461   2.477 -0.3645 -0.0537  0.3275
 4559SOL    HW221717   9.656   3.339   2.582 -0.1566 -0.5725 -0.3160
 4560SOL     OW21718   3.806   7.171   1.887  0.2991 -0.0805  0.2136
 4560SOL    HW121719   3.851   7.224   1.815 -1.6002  0.4870 -0.6004
 4560SOL    HW221720   3.808   7.074   1.863  0.8089 -0.0228  0.0247
 4561SOL     OW21721   7.636   9.199   2.415  0.4698  0.1558  0.3924
 4561SOL    HW121722   7.690   9.275   2.451  2.5006 -1.2290  0.3156
 4561SOL    HW221723   7.635   9.204   2.315  1.6880 -0.6427  0.3356
 4562SOL     OW21724   9.082   0.392   1.799  0.5543 -0.0715  0.1384
 4562SOL    HW121725   9.130   0.446   1.868  1.6703 -2.7407  1.5188
 4562SOL    HW221726   9.091   0.435   1.710  1.3067  2.0605  1.2229
 4563SOL     OW21727   2.702   2.608   3.799 -0.0800 -0.3908 -0.0815
 4563SOL    HW121728   2.684   2.588   3.896 -1.4969  1.5456  0.0852
 4563SOL    HW221729   2.679   2.528   3.744 -1.7515 -0.6662  0.9566
 4564SOL     OW21730   1.406   1.419   3.023 -0.2125 -0.2949 -0.3985
 4564SOL    HW121731   1.409   1.360   2.942  0.2668 -0.6509 -0.1247
 4564SOL    HW221732   1.311   1.430   3.053 -0.2890 -1.1246 -0.3111
 4565SOL     OW21733   2.005   1.246   3.210  0.0290  0.4689 -0.3260
 4565SOL    HW121734   1.918   1.288   3.236  0.1666 -0.2781  1.4381
 4565SOL    HW221735   2.065   1.316   3.170  0.2927  2.0483  2.6483
 4566SOL     OW21736   3.586   8.618   2.021  0.3625 -0.0784 -0.2256
 4566SOL    HW121737   3.614   8.525   2.044  1.3078  0.2174 -0.1844
 4566SOL    HW221738   3.518   8.650   2.088  0.9920 -0.2704  0.5107
 4567SOL     OW21739   3.135   8.285   3.798  0.2540  0.3321 -0.6847
 4567SOL    HW121740   3.178   8.315   3.714  0.0424  0.3535 -0.7854
 4567SOL    HW221741   3.076   8.206   3.780  0.8621 -0.1883 -0.4091
 4568SOL     OW21742   6.112   0.554   0.498  0.4165 -0.4031 -0.0579
 4568SOL    HW121743   6.118   0.641   0.449 -0.5289  0.5102  1.3822
 4568SOL    HW221744   6.189   0.545   0.560  0.2138 -0.3267  0.2054
 4569SOL     OW21745   8.832   1.623   3.124  0.0331 -0.4368  0.0139
 4569SOL    HW121746   8.873   1.698   3.176 -0.3938  0.1629 -0.5121
 4569SOL    HW221747   8.756   1.658   3.070 -0.0528 -1.2181 -0.3699
 4570SOL     OW21748   0.760   9.251   0.821 -0.0984 -0.0720  0.3375
 4570SOL    HW121749   0.781   9.339   0.779 -1.8859 -0.8576 -2.2804
 4570SOL    HW221750   0.815   9.179   0.778 -2.1098 -0.9193 -0.8843
 4572SOL     OW21751   9.482   8.872   4.409 -0.5569 -0.1561 -0.4200
 4572SOL    HW121752   9.515   8.860   4.503  2.0007 -0.2245 -1.2884
 4572SOL    HW221753   9.415   8.801   4.388  0.8579 -1.8023  0.4768
 4574SOL     OW21754   0.337   0.768   0.594  0.7458 -0.0745  0.4115
 4574SOL    HW121755   0.392   0.698   0.548  0.6198  0.7373 -1.0178
 4574SOL    HW221756   0.397   0.829   0.646  0.7888 -1.6827  2.3212
 4575SOL     OW21757   1.919   2.250   4.041 -0.2078 -0.1868  0.3639
 4575SOL    HW121758   2.009   2.231   4.080  0.5544  1.1042 -0.7118
 4575SOL    HW221759   1.863   2.299   4.109 -0.5122 -1.9938  1.4315
 4579SOL     OW21760   2.037   7.079   1.597 -0.2838  0.2224 -0.0333
 4579SOL    HW121761   2.007   7.170   1.625 -2.5494 -1.1956  2.3855
 4579SOL    HW221762   1.958   7.024   1.573  1.0142 -1.2901 -0.9253
 4580SOL     OW21763   5.814   0.051   2.645  0.0730 -0.2534 -0.1574
 4580SOL    HW121764   5.904   0.018   2.618 -0.3844 -0.2152 -1.7991
 4580SOL    HW221765   5.754  -0.026   2.664 -0.0972 -0.3126 -0.9367
 4581SOL     OW21766   1.840   4.793   1.891  0.8189 -0.1598  0.1824
 4581SOL    HW121767   1.874   4.718   1.947 -0.1017 -0.4920  0.3013
 4581SOL    HW221768   1.743   4.808   1.908  0.1536 -1.2290 -2.3597
 4585SOL     OW21769   0.343   8.613   3.013 -0.4107  0.4596 -0.4774
 4585SOL    HW121770   0.279   8.607   3.089  1.7962 -0.8276  1.3599
 4585SOL    HW221771   0.376   8.707   3.004 -0.8773  0.6719  0.0044
 4586SOL     OW21772   3.942   3.280   2.395  0.0435  0.0839 -0.0751
 4586SOL    HW121773   3.899   3.250   2.480 -1.8023  1.1164 -0.6382
 4586SOL    HW221774   4.008   3.211   2.365  0.7853 -0.2444  2.2414
 4587SOL     OW21775   4.750   8.642   2.554 -0.3518  0.0029  0.1496
 4587SOL    HW121776   4.797   8.713   2.607 -0.8376  1.5573 -1.4635
 4587SOL    HW221777   4.678   8.602   2.611  1.4288 -0.8517  1.8746
 4588SOL     OW21778   0.042   6.981   4.024 -0.0088  0.6012 -0.6007
 4588SOL    HW121779   0.087   6.980   3.935  0.0405  0.1987 -0.5730
 4588SOL    HW221780   0.110   6.971   4.096 -0.1739 -0.3306 -0.5721
 4589SOL     OW21781   9.536   6.792   3.799 -0.0840 -0.2494  0.0248
 4589SOL    HW121782   9.629   6.781   3.764 -0.2907 -0.3899 -0.4744
 4589SOL    HW221783   9.476   6.826   3.727 -0.4229 -0.1522  0.3471
 4590SOL     OW21784   2.225   7.600   0.651 -0.5216 -0.0747  0.6112
 4590SOL    HW121785   2.311   7.625   0.696 -0.7764  0.0035  1.0512
 4590SOL    HW221786   2.177   7.683   0.623  0.4513 -0.1519 -1.3371
 4591SOL     OW21787   1.868   0.885   3.474  0.2893 -0.0135  0.1238
 4591SOL    HW121788   1.804   0.850   3.407 -1.5607  0.4565  1.5863
 4591SOL    HW221789   1.954   0.833   3.470 -0.5619 -1.3443 -1.1504
 4594SOL     OW21790   1.451   7.203   2.509 -0.0780  0.0445  0.3021
 4594SOL    HW121791   1.356   7.226   2.489  0.1746  0.9795  0.1595
 4594SOL    HW221792   1.510   7.280   2.485  0.5830 -0.0475  1.5695
 4595SOL     OW21793   2.425   1.568   1.652  0.4414 -0.0326  0.4522
 4595SOL    HW121794   2.394   1.662   1.641 -0.5890 -0.4475 -0.3934
 4595SOL    HW221795   2.349   1.512   1.685  1.4071 -0.3227  2.2201
 4596SOL     OW21796   0.983   1.526   0.137 -0.1200 -0.1200  0.0556
 4596SOL    HW121797   1.050   1.599   0.130  1.3744 -1.5942 -1.1658
 4596SOL    HW221798   0.944   1.507   0.047 -0.4950 -0.8460  0.3663
 4597SOL     OW21799   7.358   9.736   1.647 -0.2125  0.5412 -0.2768
 4597SOL    HW121800   7.387   9.687   1.566 -2.6426  0.3564 -1.0804
 4597SOL    HW221801   7.265   9.771   1.634 -0.5456  0.7731  2.3017
 4600SOL     OW21802   8.837   5.479   1.387 -0.4790 -0.4916  0.0531
 4600SOL    HW121803   8.862   5.573   1.363  1.8674 -0.9643  0.5609
 4600SOL    HW221804   8.797   5.478   1.479 -1.1702  0.0984 -0.2371
 4602SOL     OW21805   0.767   3.788   1.243  0.1424  0.3579 -0.3277
 4602SOL    HW121806   0.848   3.846   1.250  0.6140 -0.3333  0.0624
 4602SOL    HW221807   0.733   3.789   1.149  1.5257 -0.5606 -0.8534
 4603SOL     OW21808   2.480   1.879   0.861 -0.2134 -0.2776 -0.1989
 4603SOL    HW121809   2.490   1.866   0.960  1.7430 -0.2018 -0.3601
 4603SOL    HW221810   2.523   1.803   0.813 -0.2133  0.2126 -0.9898
 4604SOL     OW21811   4.358   8.305   1.809  0.0654  0.7225  0.4680
 4604SOL    HW121812   4.422   8.228   1.806 -2.5452 -1.5264 -0.5767
 4604SOL    HW221813   4.349   8.343   1.717 -0.4826  0.6913  0.5091
 4605SOL     OW21814   8.145   6.209   1.535  0.7102  0.2602 -0.0080
 4605SOL    HW121815   8.104   6.293   1.570 -0.4524  0.6741 -2.2677
 4605SOL    HW221816   8.100   6.130   1.577 -0.1200  0.7444  0.0197
 4606SOL     OW21817   5.390   7.818   2.576  0.1903  0.3003  0.5419
 4606SOL    HW121818   5.398   7.828   2.476  2.8901 -0.8118  0.6084
 4606SOL    HW221819   5.391   7.909   2.618 -0.7809  0.7736 -0.4379
 4607SOL     OW21820   5.107   2.970   2.521  0.5095 -0.5301  0.1627
 4607SOL    HW121821   5.106   2.883   2.471  0.8841 -0.6610  0.3821
 4607SOL    HW221822   5.192   2.977   2.572  0.0658 -0.4521  0.8861
 4608SOL     OW21823   8.003   5.039   4.236 -0.9258 -0.6509 -0.1163
 4608SOL    HW121824   7.956   5.125   4.215 -0.1510  0.0009  0.7811
 4608SOL    HW221825   7.935   4.966   4.248 -1.5442 -0.3552 -1.7240
 4609SOL     OW21826   1.283   1.340   2.436 -0.0183  0.3885 -0.0826
 4609SOL    HW121827   1.372   1.313   2.472  0.6451  1.2572 -1.0339
 4609SOL    HW221828   1.282   1.438   2.419 -0.7410  0.1966 -1.2249
 4610SOL     OW21829   0.224   6.321   3.058 -0.1785 -0.2039 -0.0576
 4610SOL    HW121830   0.142   6.361   3.018 -0.7848 -0.0592  1.3124
 4610SOL    HW221831   0.219   6.221   3.052 -0.1869 -0.1837 -0.4641
 4611SOL     OW21832   9.525   0.486   3.037 -0.0491 -0.0364  0.1452
 4611SOL    HW121833   9.484   0.445   3.119  1.3392 -0.1415  0.7914
 4611SOL    HW221834   9.492   0.580   3.027 -0.3820 -0.0911  0.7099
 4612SOL     OW21835   9.794   7.062   3.766  0.3622  0.0926  0.3363
 4612SOL    HW121836   9.772   6.983   3.710 -1.2290  1.1297 -0.5606
 4612SOL    HW221837   9.760   7.048   3.859 -0.9456  0.1859 -0.1173
 4614SOL     OW21838   4.132   7.924   0.296  0.4218 -0.0784 -0.2161
 4614SOL    HW121839   4.204   7.855   0.294  1.0206  0.5412 -0.1255
 4614SOL    HW221840   4.140   7.979   0.379  0.8747  1.0795 -1.0134
 4615SOL     OW21841   4.199   0.292   1.559 -0.2167 -0.1874 -0.8939
 4615SOL    HW121842   4.295   0.281   1.532  0.1798 -0.0279  0.4548
 4615SOL    HW221843   4.150   0.208   1.538  0.3521 -0.5051 -0.9845
 4616SOL     OW21844   9.285   9.835   2.070 -0.5614  0.0057 -0.0421
 4616SOL    HW121845   9.246   9.869   2.155 -1.5519 -0.6679 -0.2236
 4616SOL    HW221846   9.281   9.735   2.068  0.6507 -0.0446 -0.3115
 4617SOL     OW21847   3.970   1.769   1.932  0.6048  0.0313  0.0901
 4617SOL    HW121848   3.998   1.689   1.878 -1.3636  0.0064 -0.9184
 4617SOL    HW221849   4.036   1.843   1.917  0.5257 -0.2362 -1.7819
 4618SOL     OW21850   5.276   8.800   2.710  0.1676 -0.2439 -0.3428
 4618SOL    HW121851   5.242   8.751   2.790 -0.0624 -1.4982 -1.1840
 4618SOL    HW221852   5.326   8.736   2.651  0.7327  0.7642 -0.9664
 4619SOL     OW21853   1.435   3.212   3.298  0.1235 -0.1135 -0.5001
 4619SOL    HW121854   1.407   3.142   3.233  1.6833 -0.8705 -0.3886
 4619SOL    HW221855   1.438   3.301   3.252 -0.4877 -0.3544 -1.0094
 4620SOL     OW21856   2.058   2.852   4.047  0.4184  1.1158  0.5398
 4620SOL    HW121857   2.133   2.885   4.104  2.2164 -1.6386 -0.1137
 4620SOL    HW221858   1.995   2.798   4.104  2.1969 -1.6073  0.0293
 4621SOL     OW21859   8.521   5.567   0.770  0.1923  0.0688 -0.7817
 4621SOL    HW121860   8.485   5.586   0.861 -0.1779  1.9554 -1.2896
 4621SOL    HW221861   8.522   5.652   0.716  0.7152 -0.9492 -2.4230
 4623SOL     OW21862   9.500   1.907   3.100 -0.4633 -0.1412  0.5465
 4623SOL    HW121863   9.558   1.981   3.064 -1.5736  0.9859  1.0410
 4623SOL    HW221864   9.559   1.836   3.139  0.6168  0.8793  0.8427
 4624SOL     OW21865   1.225   9.051   1.688  0.3927 -0.1452  0.3908
 4624SOL    HW121866   1.128   9.027   1.696 -0.3340  2.4580 -0.3729
 4624SOL    HW221867   1.274   9.018   1.769 -1.4001 -0.2154  1.4648
 4625SOL     OW21868   8.911   3.587   0.285  0.0865 -0.2339  0.5317
 4625SOL    HW121869   8.839   3.630   0.339  0.6185 -0.0337  1.0860
 4625SOL    HW221870   8.951   3.511   0.336  2.0870  1.3230  1.3651
 4627SOL     OW21871   0.783   1.720   1.506 -0.0929  0.4804  0.5123
 4627SOL    HW121872   0.751   1.715   1.412  0.2787  1.0299  0.3515
 4627SOL    HW221873   0.712   1.685   1.567  0.0969 -0.8926 -0.0514
 4628SOL     OW21874   3.187   7.778   3.943 -0.0792  0.3327 -0.7247
 4628SOL    HW121875   3.105   7.741   3.986  1.1235 -1.4790  0.0803
 4628SOL    HW221876   3.190   7.750   3.847 -0.2076  0.0365 -0.6439
 4629SOL     OW21877   2.096   4.696   4.049  0.3577  0.0867 -0.4213
 4629SOL    HW121878   2.187   4.733   4.031  0.1979  0.5950 -0.2079
 4629SOL    HW221879   2.092   4.661   4.143  0.3514  0.0153 -0.4484
 4631SOL     OW21880   9.032   2.062   0.596 -0.3461  0.0753 -0.5492
 4631SOL    HW121881   9.099   2.123   0.640 -1.3977  0.8089  0.0361
 4631SOL    HW221882   8.943   2.107   0.592 -1.3790 -1.7824  0.7394
 4632SOL     OW21883   4.798   2.660   3.432  0.4486  0.6281  0.1268
 4632SOL    HW121884   4.852   2.577   3.439 -0.5517 -0.0847 -0.6066
 4632SOL    HW221885   4.753   2.664   3.343 -0.5740  1.2946  0.6650
 4633SOL     OW21886   5.849   9.262   3.313 -0.1620  0.0221  0.1959
 4633SOL    HW121887   5.826   9.265   3.215 -0.2929 -0.5359  0.2018
 4633SOL    HW221888   5.923   9.197   3.327 -1.2019 -1.0966  0.6521
 4634SOL     OW21889   4.654   8.307   4.204  0.6107 -0.9259  0.3060
 4634SOL    HW121890   4.728   8.369   4.230  0.2622 -0.8682  1.1870
 4634SOL    HW221891   4.615   8.337   4.117 -0.3451  0.8324  1.3007
 4635SOL     OW21892   0.675   3.949   2.398  0.4535 -0.0931 -0.0675
 4635SOL    HW121893   0.665   3.992   2.488  1.2672 -0.7635  0.3399
 4635SOL    HW221894   0.651   3.852   2.404 -0.3299  0.0482 -0.7644
 4636SOL     OW21895   6.929   0.419   0.639  0.0079 -0.2484  0.1625
 4636SOL    HW121896   7.025   0.393   0.634  0.8742  2.7960  0.0315
 4636SOL    HW221897   6.902   0.461   0.552 -1.6773 -1.7451 -0.0711
 4638SOL     OW21898   4.189   7.780   2.572 -0.3714 -0.0761 -0.3150
 4638SOL    HW121899   4.197   7.687   2.609 -2.9458 -0.8897 -1.6739
 4638SOL    HW221900   4.182   7.845   2.648 -1.6761 -1.3262  0.6796
 4640SOL     OW21901   8.828   5.921   0.004  0.2924 -0.0356  0.5582
 4640SOL    HW121902   8.855   5.829  -0.025  1.1190  0.4865 -0.3432
 4640SOL    HW221903   8.881   5.947   0.085  0.0479 -0.3464  0.8234
 4641SOL     OW21904   2.526   0.444   4.399  0.1398  0.1224 -0.0145
 4641SOL    HW121905   2.536   0.388   4.481  1.7568  1.5077  0.7526
 4641SOL    HW221906   2.432   0.477   4.392 -0.0731 -0.2202  1.1202
 4643SOL     OW21907   8.584   2.196   3.081  0.5637 -0.1347 -0.1399
 4643SOL    HW121908   8.596   2.106   3.123 -2.2934 -0.6707 -0.3652
 4643SOL    HW221909   8.564   2.263   3.152 -0.4668 -0.3036 -0.2641
 4644SOL     OW21910   4.204   5.376   0.920 -0.2315  0.1776 -0.0499
 4644SOL    HW121911   4.143   5.454   0.933  0.9340  1.0005  0.5441
 4644SOL    HW221912   4.267   5.370   0.997 -0.8116 -1.8352  0.3119
 4645SOL     OW21913   9.378   1.336   0.692 -0.0165 -0.4718  0.2514
 4645SOL    HW121914   9.328   1.271   0.749 -2.6989  1.7024  0.4823
 4645SOL    HW221915   9.381   1.425   0.738  0.8207  0.4179 -1.4752
 4646SOL     OW21916   0.646   2.585   0.266  0.3926 -0.3132  0.0068
 4646SOL    HW121917   0.576   2.646   0.230  0.0220 -1.5672 -1.4354
 4646SOL    HW221918   0.639   2.580   0.365 -2.0084 -0.9677 -0.1743
 4647SOL     OW21919   4.367   1.428   2.361 -0.1526 -0.5294 -0.0330
 4647SOL    HW121920   4.362   1.331   2.337  0.0335 -0.6586  0.4377
 4647SOL    HW221921   4.461   1.460   2.350 -0.3047 -0.2821 -0.6365
 4648SOL     OW21922   8.812   2.263   0.259  0.1766  0.1396  0.1175
 4648SOL    HW121923   8.824   2.192   0.328 -1.8708  1.1227  1.5715
 4648SOL    HW221924   8.803   2.352   0.305  1.9559  1.2556 -1.6143
 4649SOL     OW21925   3.512   1.830   1.222  0.0062  0.1872  0.5847
 4649SOL    HW121926   3.580   1.885   1.270  1.0426 -0.7834  0.2621
 4649SOL    HW221927   3.491   1.749   1.277  1.8329 -1.3705 -0.9181
 4650SOL     OW21928   1.252   1.081   0.149  0.2787 -0.3372 -0.3161
 4650SOL    HW121929   1.316   1.148   0.111  0.3435  0.2180  0.7678
 4650SOL    HW221930   1.302   1.013   0.202 -0.1168  0.7350  1.4724
 4651SOL     OW21931   3.965   3.154   1.131  0.6052  0.1693  0.0327
 4651SOL    HW121932   4.013   3.080   1.084 -0.0290  0.4080 -1.0138
 4651SOL    HW221933   3.967   3.137   1.229  0.1069 -1.4668 -0.2117
 4652SOL     OW21934   7.741   1.680   3.654 -0.8386 -0.1713  0.5030
 4652SOL    HW121935   7.812   1.744   3.682 -1.5352  0.0468  1.8374
 4652SOL    HW221936   7.678   1.665   3.731 -0.5215 -2.6893  0.3051
 4653SOL     OW21937   7.830   7.877   4.309 -0.2058 -0.7510 -0.3948
 4653SOL    HW121938   7.839   7.849   4.405  0.6641 -2.4470 -0.9668
 4653SOL    HW221939   7.907   7.936   4.285 -0.4938 -0.2137 -0.0260
 4654SOL     OW21940   8.281   9.740   2.169 -0.3927  0.3014  0.4520
 4654SOL    HW121941   8.258   9.710   2.076 -0.4204 -0.0657  0.5769
 4654SOL    HW221942   8.379   9.726   2.186 -0.3730  0.4435  0.4480
 4655SOL     OW21943   2.609   7.345   0.832 -0.0824  0.5682  0.2746
 4655SOL    HW121944   2.529   7.332   0.891  0.7206 -1.0799  1.0342
 4655SOL    HW221945   2.678   7.397   0.882  0.2845 -0.1504  0.5310
 4656SOL     OW21946   1.725   5.139   1.077 -0.3190  0.0628  0.0635
 4656SOL    HW121947   1.762   5.200   1.008  0.7843 -1.7176 -0.9817
 4656SOL    HW221948   1.629   5.119   1.058 -0.6673  1.4081  0.3874
 4657SOL     OW21949   3.137   8.414   0.205 -0.1464 -0.0788 -0.4310
 4657SOL    HW121950   3.188   8.459   0.132 -0.1449  0.9276  0.1732
 4657SOL    HW221951   3.071   8.479   0.244  1.5563  0.2097  2.1162
 4659SOL     OW21952   8.741   7.126   2.339  0.0722 -0.1912 -0.3067
 4659SOL    HW121953   8.650   7.155   2.311  0.6867  0.2011 -1.9441
 4659SOL    HW221954   8.742   7.109   2.438 -1.9098 -0.7630 -0.3804
 4660SOL     OW21955   1.143   9.072   3.619 -0.4677  0.3960  0.0841
 4660SOL    HW121956   1.212   9.016   3.573  1.8536  2.5693  0.8295
 4660SOL    HW221957   1.101   9.135   3.554 -1.4098 -0.5626 -0.2561
 4662SOL     OW21958   8.057   7.052   2.314  0.1085  0.1060 -0.3050
 4662SOL    HW121959   8.112   7.077   2.234 -0.5605 -1.9786 -1.4770
 4662SOL    HW221960   7.960   7.058   2.290 -0.0763 -2.9705 -0.4951
 4663SOL     OW21961   1.842   1.979   0.418  0.1547 -0.7205  0.2051
 4663SOL    HW121962   1.807   1.931   0.499  1.2571 -0.7133  0.6969
 4663SOL    HW221963   1.912   2.045   0.447 -1.4203  1.2640 -0.4436
 4664SOL     OW21964   7.301   1.410   0.268  0.3429 -0.3362 -0.6032
 4664SOL    HW121965   7.353   1.491   0.240 -0.8431  0.6258 -0.1304
 4664SOL    HW221966   7.239   1.383   0.194 -0.2759  0.0613 -0.2348
 4665SOL     OW21967   0.803   4.384   2.680  0.4809 -0.1389 -0.2061
 4665SOL    HW121968   0.740   4.310   2.658  1.5062 -1.8328  2.3738
 4665SOL    HW221969   0.856   4.408   2.598  0.3403 -2.4705 -1.0028
 4666SOL     OW21970   7.843   5.557   1.961 -0.4732 -0.1589 -0.0027
 4666SOL    HW121971   7.870   5.652   1.975 -0.0228 -0.1887 -0.6580
 4666SOL    HW221972   7.778   5.552   1.885 -0.7049 -0.3419  0.2079
 4667SOL     OW21973   3.233   3.429   4.280  0.2335 -0.1363  0.1828
 4667SOL    HW121974   3.201   3.339   4.249  0.8697 -0.2389 -0.1944
 4667SOL    HW221975   3.322   3.448   4.238 -0.2016  0.9614 -0.2623
 4668SOL     OW21976   1.699   1.026   0.854 -0.1787  0.5285 -0.4871
 4668SOL    HW121977   1.610   1.052   0.816 -0.0751 -1.9655 -2.5701
 4668SOL    HW221978   1.686   0.957   0.926  0.0081  0.8409 -0.1536
 4669SOL     OW21979   9.487   0.386   0.432 -0.1155  0.3103 -0.1061
 4669SOL    HW121980   9.571   0.440   0.421 -0.0159  0.0189 -0.8354
 4669SOL    HW221981   9.478   0.324   0.354 -1.3630  0.8142 -0.3694
 4670SOL     OW21982   6.293   7.121   2.261 -0.2847  0.5526 -0.5272
 4670SOL    HW121983   6.242   7.203   2.234 -1.5080  0.6074  1.7933
 4670SOL    HW221984   6.230   7.044   2.269  0.3545  0.1050  0.2816
 4671SOL     OW21985   5.286   0.298   0.991 -0.5280  0.2906  0.1815
 4671SOL    HW121986   5.380   0.264   0.980 -0.5998  0.2857 -0.4252
 4671SOL    HW221987   5.254   0.337   0.905 -1.3948 -0.4768  0.1488
 4672SOL     OW21988   3.439   6.177   1.119 -0.3581 -0.3674 -0.4988
 4672SOL    HW121989   3.402   6.182   1.026 -2.3268 -0.4588  0.2551
 4672SOL    HW221990   3.369   6.142   1.180  0.9093 -0.2334  1.0499
 4674SOL     OW21991   1.610   5.212   2.278 -0.1356 -0.5233 -0.6400
 4674SOL    HW121992   1.620   5.288   2.214 -0.2134 -0.4481 -0.5631
 4674SOL    HW221993   1.683   5.146   2.263  0.2961 -0.1275 -0.2796
 4676SOL     OW21994   0.458   2.912   0.877  0.0519 -0.3967  0.1433
 4676SOL    HW121995   0.529   2.921   0.807  0.2507 -2.4749  0.0421
 4676SOL    HW221996   0.385   2.977   0.859  1.1453  0.6244 -0.7042
 4679SOL     OW21997   5.813   0.256   3.127 -0.2994 -0.4688  0.1283
 4679SOL    HW121998   5.817   0.235   3.029 -1.0983 -0.5368  0.1098
 4679SOL    HW221999   5.805   0.171   3.179 -2.8017 -0.3058  0.0888
 4680SOL     OW22000   7.347   3.164   0.442  0.2919 -0.2983  0.1510
 4680SOL    HW122001   7.295   3.083   0.470 -0.1840 -0.3715 -0.8792
 4680SOL    HW222002   7.317   3.192   0.350  0.4845  1.0163  0.4753
 4681SOL     OW22003   2.998   3.627   3.411 -0.6150  0.4661  0.4870
 4681SOL    HW122004   3.069   3.586   3.469 -2.2949 -1.5278  1.1883
 4681SOL    HW222005   3.041   3.686   3.342  1.6907 -0.4694  1.0818
 4682SOL     OW22006   0.041   8.872   4.217  1.1190  0.1856 -0.0087
 4682SOL    HW122007   0.066   8.916   4.131  0.7652  0.6231  0.1056
 4682SOL    HW222008  -0.057   8.883   4.233  1.5949  2.4180  1.7150
 4683SOL     OW22009   3.242   6.066   1.265 -0.2155 -0.3799 -0.1669
 4683SOL    HW122010   3.193   6.103   1.345  0.5079 -1.2891  0.7068
 4683SOL    HW222011   3.234   5.967   1.265  1.3083 -0.5052 -0.2350
 4684SOL     OW22012   9.443   4.246   2.300 -0.4435  0.1212 -0.1909
 4684SOL    HW122013   9.448   4.346   2.296 -1.1934  0.1375 -1.0356
 4684SOL    HW222014   9.535   4.207   2.295 -0.1976  0.7497 -0.6507
 4685SOL     OW22015   2.403   9.395   4.006  0.0093  0.2684  0.1940
 4685SOL    HW122016   2.436   9.490   4.000  0.6707  0.1668  2.0197
 4685SOL    HW222017   2.470   9.334   3.964 -0.1068  0.5310 -0.3873
 4686SOL     OW22018   5.163   0.838   1.402  0.6149 -0.3071  0.5901
 4686SOL    HW122019   5.172   0.864   1.499 -0.2526 -1.0876  0.8815
 4686SOL    HW222020   5.073   0.865   1.368 -0.3417 -2.9859  0.9228
 4687SOL     OW22021   8.928   9.951   2.067 -0.3207 -0.1604  0.3355
 4687SOL    HW122022   8.967   9.994   1.985  0.1819  0.3011  0.8172
 4687SOL    HW222023   8.945   9.853   2.065  1.5686  0.1434  0.9409
 4688SOL     OW22024   7.632   9.119   0.913  0.1975  0.1190 -0.0929
 4688SOL    HW122025   7.567   9.076   0.974 -1.7404  2.7353 -0.1980
 4688SOL    HW222026   7.599   9.112   0.819  0.1714  1.2321 -0.1757
 4689SOL     OW22027   1.611   8.940   1.254 -0.1896  0.0265  0.0030
 4689SOL    HW122028   1.662   8.993   1.322  0.8677 -0.4953 -0.3703
 4689SOL    HW222029   1.533   8.896   1.297 -2.1730  3.3507 -0.0090
 4690SOL     OW22030   2.087   5.591   1.848  0.5851  0.0527 -0.6226
 4690SOL    HW122031   2.033   5.530   1.789 -1.1353  0.5494  0.4161
 4690SOL    HW222032   2.114   5.542   1.931 -2.7944  1.3403  1.3085
 4691SOL     OW22033   3.750   6.853   2.609  0.0384 -0.1727 -0.2445
 4691SOL    HW122034   3.821   6.834   2.540  1.4629 -2.4772  1.7839
 4691SOL    HW222035   3.674   6.790   2.595 -0.2346  0.2118 -0.4932
 4692SOL     OW22036   6.780   9.731   1.160  0.6382 -0.5397  0.2173
 4692SOL    HW122037   6.851   9.716   1.091 -0.3576 -4.2680 -0.1121
 4692SOL    HW222038   6.819   9.776   1.239  2.2651  1.9644 -1.9365
 4693SOL     OW22039   2.224   2.518   1.419 -0.4924  0.2646 -0.4103
 4693SOL    HW122040   2.186   2.491   1.507 -1.4949  1.8468 -0.3387
 4693SOL    HW222041   2.305   2.576   1.434 -0.9869  0.9934 -0.5044
 4695SOL     OW22042   1.569   6.762   3.160  0.2498  0.7978 -0.0443
 4695SOL    HW122043   1.486   6.807   3.191 -0.1171 -0.6006  1.0381
 4695SOL    HW222044   1.595   6.798   3.070 -1.0838  1.7884 -0.0426
 4696SOL     OW22045   9.403   8.554   0.436 -0.1839 -0.3615  0.1931
 4696SOL    HW122046   9.381   8.579   0.530  0.9733  1.8940 -0.0964
 4696SOL    HW222047   9.352   8.613   0.373  1.0676 -0.0427 -0.5422
 4697SOL     OW22048   4.188   3.431   3.223  0.5564 -0.2380  0.0396
 4697SOL    HW122049   4.168   3.385   3.137  1.7625  0.5106 -0.6492
 4697SOL    HW222050   4.111   3.418   3.286 -0.5630 -0.3589 -1.3173
 4698SOL     OW22051   0.559   8.521   1.659 -0.3096 -0.2464 -0.2745
 4698SOL    HW122052   0.531   8.572   1.740 -0.0144 -0.1987 -0.1996
 4698SOL    HW222053   0.619   8.446   1.687 -0.7981 -0.6768 -0.3755
 4699SOL     OW22054   4.604   2.527   2.622 -0.2737  0.5239  0.7399
 4699SOL    HW122055   4.545   2.593   2.667 -0.2802  1.2991 -0.3927
 4699SOL    HW222056   4.678   2.500   2.684 -1.2665  0.2679  1.8188
 4700SOL     OW22057   1.962   3.260   2.008  0.0439 -0.1246 -0.1044
 4700SOL    HW122058   1.953   3.255   2.107  0.5635  0.5698 -0.0218
 4700SOL    HW222059   1.983   3.354   1.981  0.0017 -0.3308 -0.8647
 4701SOL     OW22060   5.537   8.375   4.337  0.2984 -0.1097 -0.0401
 4701SOL    HW122061   5.575   8.450   4.283  3.7023 -1.2364  0.6719
 4701SOL    HW222062   5.561   8.288   4.294 -0.6181 -0.9147  1.0470
 4702SOL     OW22063   6.039   8.992   1.962  0.3877 -0.0099  0.1502
 4702SOL    HW122064   6.097   9.049   1.904 -0.3441 -2.1723 -2.8341
 4702SOL    HW222065   6.096   8.945   2.030  1.6986  0.2335 -0.7581
 4703SOL     OW22066   8.299   4.828   2.182 -0.1188  0.1881 -0.3064
 4703SOL    HW122067   8.368   4.888   2.223  0.2439  0.5160 -1.3737
 4703SOL    HW222068   8.256   4.874   2.104 -0.9493 -0.3373 -0.1655
 4704SOL     OW22069   7.353   0.655   3.099  0.2681 -0.6726  0.3863
 4704SOL    HW122070   7.357   0.612   3.009 -1.2777 -0.8966  0.4091
 4704SOL    HW222071   7.289   0.732   3.097  0.0157 -0.8425  1.3653
 4705SOL     OW22072   7.931   8.702   3.804  0.1456 -0.0807 -0.5630
 4705SOL    HW122073   7.832   8.714   3.815  0.3502  0.7955  0.3649
 4705SOL    HW222074   7.956   8.609   3.830 -0.4659 -0.3939 -1.0576
 4706SOL     OW22075   8.151   4.578   2.160 -0.3824  0.5259  0.0105
 4706SOL    HW122076   8.206   4.662   2.170 -1.3514  1.2547 -0.6839
 4706SOL    HW222077   8.172   4.516   2.235 -1.4918  2.4402  1.9745
 4708SOL     OW22078   6.480   7.366   3.110 -0.0557  0.3163 -0.4372
 4708SOL    HW122079   6.442   7.339   3.199 -2.0883  0.6291 -1.1972
 4708SOL    HW222080   6.467   7.292   3.044 -1.6998  1.4194 -1.3749
 4709SOL     OW22081   0.415   0.021   2.122 -0.5343 -0.1957 -0.1052
 4709SOL    HW122082   0.503   0.005   2.167 -0.4774  0.2175 -0.0639
 4709SOL    HW222083   0.374   0.105   2.158 -0.3417  0.3135 -1.0586
 4710SOL     OW22084   3.067   9.390   3.014 -0.7064  0.9997  0.1378
 4710SOL    HW122085   3.101   9.462   2.954  1.5332 -0.4715 -0.3813
 4710SOL    HW222086   3.078   9.301   2.970 -0.1459  0.0037  2.2344
 4711SOL     OW22087   3.411   6.171   0.361  0.2832  0.8374  0.0480
 4711SOL    HW122088   3.349   6.244   0.334 -0.2651  0.3437 -0.0242
 4711SOL    HW222089   3.404   6.095   0.296  2.1069  1.4196 -0.8548
 4713SOL     OW22090   8.407   1.637   2.211 -0.1809  0.4449 -0.0887
 4713SOL    HW122091   8.416   1.672   2.304 -1.2169 -0.6144  0.4193
 4713SOL    HW222092   8.445   1.704   2.147  1.7638  0.5978  1.1794
 4714SOL     OW22093   1.078   8.019   3.447 -0.6333 -0.4410 -0.2250
 4714SOL    HW122094   1.130   8.102   3.426 -0.5676 -0.4880 -0.2488
 4714SOL    HW222095   1.102   7.948   3.382 -0.1265 -0.7150  0.2545
 4715SOL     OW22096   4.727   2.683   3.717  0.3514  0.5788  0.0426
 4715SOL    HW122097   4.778   2.663   3.633  0.0614 -0.4144  0.0929
 4715SOL    HW222098   4.689   2.775   3.712 -0.1177  0.3289 -1.1579
 4716SOL     OW22099   7.791   3.838   0.653 -0.1635  0.1333 -0.1996
 4716SOL    HW122100   7.762   3.881   0.568  1.3264  0.4928 -0.5245
 4716SOL    HW222101   7.889   3.848   0.665 -0.0810 -1.4929  0.6762
 4717SOL     OW22102   8.423   5.781   2.956 -0.4598  0.8406  0.0084
 4717SOL    HW122103   8.424   5.698   2.900  0.1309  1.5785 -1.1015
 4717SOL    HW222104   8.460   5.761   3.047 -0.3484 -0.1138 -0.2403
 4718SOL     OW22105   9.626   9.502   1.826  0.0580  0.1910 -0.0129
 4718SOL    HW122106   9.667   9.430   1.770 -1.2032 -0.5303 -0.0251
 4718SOL    HW222107   9.593   9.576   1.767 -1.2680 -0.5674 -0.2560
 4719SOL     OW22108   8.637   9.333   0.159 -0.0802  0.1031 -0.4421
 4719SOL    HW122109   8.594   9.415   0.122 -0.7669  0.2122  0.5749
 4719SOL    HW222110   8.711   9.359   0.221 -0.7081 -0.0225  0.3735
 4720SOL     OW22111   6.196   0.912   4.295  0.0434  0.6351 -0.0179
 4720SOL    HW122112   6.285   0.866   4.308 -1.0969 -0.8813  3.0175
 4720SOL    HW222113   6.197   1.000   4.342 -0.1643  0.4629  0.3107
 4721SOL     OW22114   7.095   7.447   4.066  0.0717  0.4449  0.4012
 4721SOL    HW122115   7.025   7.377   4.077  0.5282 -0.2929 -1.2546
 4721SOL    HW222116   7.160   7.419   3.996  1.9040  1.2308  1.7584
 4722SOL     OW22117   0.155   0.924   3.632 -0.0424  0.3006 -1.2040
 4722SOL    HW122118   0.125   0.832   3.606 -0.5237  0.0515  0.1959
 4722SOL    HW222119   0.245   0.919   3.674 -0.6931  0.2863  0.1946
 4724SOL     OW22120   2.953   1.161   4.320  0.4496 -0.4091  0.4285
 4724SOL    HW122121   2.893   1.152   4.400  1.7407  2.0980  1.7587
 4724SOL    HW222122   2.904   1.206   4.246 -0.1311 -0.8505  0.5428
 4726SOL     OW22123   1.816   2.486   0.795  0.0199 -0.1105  0.2076
 4726SOL    HW122124   1.737   2.548   0.788 -0.1938 -0.4484 -0.3863
 4726SOL    HW222125   1.822   2.429   0.713 -1.5135 -2.9565  1.9894
 4727SOL     OW22126   6.163   9.572   3.092  0.5042 -0.1332  0.0638
 4727SOL    HW122127   6.167   9.528   3.002 -1.3137 -0.3614  0.0780
 4727SOL    HW222128   6.118   9.510   3.157 -1.9314  1.6491  0.1277
 4728SOL     OW22129   9.995   5.760   0.047  0.0713 -0.1478  0.2041
 4728SOL    HW122130   9.896   5.761   0.035  0.0491 -0.7039  0.3295
 4728SOL    HW222131  10.017   5.754   0.144  0.2292  0.0453  0.1813
 4729SOL     OW22132   9.202   8.089   0.096 -0.1417  0.0379 -0.2045
 4729SOL    HW122133   9.282   8.050   0.051  0.2359 -0.9073  1.2337
 4729SOL    HW222134   9.148   8.141   0.030  0.8702 -0.5533 -1.5202
 4730SOL     OW22135   3.971   1.035   0.920 -0.0120 -0.1964 -0.1099
 4730SOL    HW122136   4.024   1.109   0.878 -0.4507  0.0602 -0.2092
 4730SOL    HW222137   4.003   0.947   0.884 -0.9173  0.0603 -1.5887
 4733SOL     OW22138   3.345   1.458   3.856  0.1945 -0.0065  0.3047
 4733SOL    HW122139   3.367   1.378   3.912  1.5335 -0.1862 -0.4545
 4733SOL    HW222140   3.347   1.433   3.759  0.3909  0.8948  0.0755
 4734SOL     OW22141   3.457   0.554   0.444 -0.0589 -0.6081  0.0746
 4734SOL    HW122142   3.460   0.650   0.414 -1.2895 -0.8274 -0.8024
 4734SOL    HW222143   3.457   0.494   0.364 -0.4439 -1.3011  0.5847
 4735SOL     OW22144   9.061   6.418   2.661  0.6946 -0.5074 -0.0501
 4735SOL    HW122145   9.101   6.328   2.677  0.1105 -0.6863  0.3933
 4735SOL    HW222146   8.964   6.417   2.685  0.2225 -0.2817 -1.8517
 4736SOL     OW22147   2.448   5.939   1.557  0.6514  0.0915  0.5389
 4736SOL    HW122148   2.370   5.882   1.578 -1.4034  2.2486 -1.0006
 4736SOL    HW222149   2.497   5.962   1.642  0.2171 -2.0710  1.3887
 4737SOL     OW22150   6.615   0.011   4.319  0.5550 -0.0250  0.6480
 4737SOL    HW122151   6.525  -0.032   4.320 -0.0006  1.1026  0.3532
 4737SOL    HW222152   6.632   0.051   4.229  0.8282  0.8524  1.0880
 4739SOL     OW22153   0.015   7.599   2.376  0.1923 -0.2424 -0.3749
 4739SOL    HW122154   0.006   7.533   2.451  1.9245 -0.1472 -0.0568
 4739SOL    HW222155   0.028   7.691   2.413  0.0251 -0.0413 -0.8052
 4740SOL     OW22156   2.463   4.554   0.502  0.0929 -0.8748  0.0722
 4740SOL    HW122157   2.384   4.580   0.446 -0.0347 -1.2505  0.0750
 4740SOL    HW222158   2.441   4.567   0.599  0.7914  1.0873 -0.0148
 4741SOL     OW22159   1.841   6.221   2.342  0.0161  0.1886  0.7819
 4741SOL    HW122160   1.876   6.128   2.330  2.0161  1.1061 -0.7936
 4741SOL    HW222161   1.743   6.222   2.324  0.2848 -1.3118 -0.9115
 4742SOL     OW22162   8.898   1.256   1.477 -0.0429  0.3672 -0.1710
 4742SOL    HW122163   8.866   1.297   1.562  0.3915  0.6574 -0.1495
 4742SOL    HW222164   8.854   1.167   1.465  0.6873 -0.1367  0.8656
 4743SOL     OW22165   9.548   8.548   1.847 -0.1047 -0.5645  0.5865
 4743SOL    HW122166   9.538   8.645   1.869 -0.3706 -0.1164 -1.4423
 4743SOL    HW222167   9.459   8.503   1.852 -0.0032 -0.6987  1.3791
 4744SOL     OW22168   4.396   0.317   3.037  0.0470  0.0544 -0.4116
 4744SOL    HW122169   4.368   0.263   3.116 -0.3332  0.3474 -0.3445
 4744SOL    HW222170   4.495   0.327   3.036  0.1460 -0.8999 -0.5902
 4746SOL     OW22171   3.866   8.417   1.159 -0.1665 -0.3850  0.4657
 4746SOL    HW122172   3.777   8.431   1.201  0.0209  0.1178  0.6968
 4746SOL    HW222173   3.936   8.462   1.214  0.4937 -2.4686  1.4111
 4747SOL     OW22174   9.194   3.158   2.743 -0.2764 -0.0722  0.2187
 4747SOL    HW122175   9.174   3.112   2.830  0.2383 -0.2807  0.2325
 4747SOL    HW222176   9.180   3.256   2.753  1.1263  0.0672  0.9455
 4748SOL     OW22177   1.341   0.171   1.137 -0.1501 -0.5038  0.3720
 4748SOL    HW122178   1.299   0.123   1.060 -0.0109 -0.2577  0.1395
 4748SOL    HW222179   1.427   0.212   1.107 -1.5611  2.2149 -0.2091
 4749SOL     OW22180   7.547   1.628   3.883  0.4519 -0.2176  0.2758
 4749SOL    HW122181   7.470   1.682   3.851  1.2835  0.5511 -0.4550
 4749SOL    HW222182   7.523   1.531   3.882 -0.4890  0.0151  0.0257
 4750SOL     OW22183   7.644   9.229   2.151 -0.1798 -0.0336  0.7125
 4750SOL    HW122184   7.668   9.308   2.094  0.6533  1.3694  2.9360
 4750SOL    HW222185   7.565   9.182   2.112 -0.1152  1.3616 -1.1515
 4752SOL     OW22186   5.532   0.184   1.006  0.4435  0.1253  0.6394
 4752SOL    HW122187   5.524   0.101   1.061  2.2703  0.1179  0.9268
 4752SOL    HW222188   5.607   0.173   0.941  1.5882  2.0304  1.5898
 4753SOL     OW22189   3.062   8.710   3.775  0.6313 -0.4246 -0.3324
 4753SOL    HW122190   3.001   8.760   3.714  1.2900 -0.3767 -0.9735
 4753SOL    HW222191   3.023   8.706   3.867  0.2665  0.6906 -0.4340
 4754SOL     OW22192   9.810   1.898   0.959 -0.0920 -0.7008 -0.0597
 4754SOL    HW122193   9.909   1.911   0.958  0.0810 -1.9853 -0.6098
 4754SOL    HW222194   9.776   1.891   0.865 -0.8588  0.7456  0.0906
 4759SOL     OW22195   9.292   6.498   0.370 -0.1090 -0.5635 -0.6755
 4759SOL    HW122196   9.261   6.402   0.367 -0.3195 -0.5888  1.7242
 4759SOL    HW222197   9.214   6.557   0.389  0.2724 -0.0494 -0.7126
 4760SOL     OW22198   8.171   0.096   3.736  0.8563 -0.0768  0.5483
 4760SOL    HW122199   8.181   0.172   3.800  0.3967  2.0287 -1.7955
 4760SOL    HW222200   8.081   0.055   3.746  0.6224  0.5361  0.9602
 4761SOL     OW22201   1.445   7.387   0.339  0.1612  0.0688  0.0504
 4761SOL    HW122202   1.364   7.443   0.355 -0.4987 -0.3423 -1.7097
 4761SOL    HW222203   1.417   7.293   0.321  0.9934  0.0276 -1.0552
 4762SOL     OW22204   3.392   7.036   2.294 -0.2082 -0.1398 -0.0493
 4762SOL    HW122205   3.314   7.096   2.277  0.0617 -0.3922 -2.3476
 4762SOL    HW222206   3.367   6.942   2.271  0.3902 -0.4024  0.3690
 4763SOL     OW22207   5.839   1.490   2.536 -0.2365  1.1795  0.0028
 4763SOL    HW122208   5.801   1.440   2.613 -2.4401  1.1053 -1.0743
 4763SOL    HW222209   5.825   1.438   2.452  1.3961  1.6262 -0.5677
 4764SOL     OW22210   1.324   9.216   1.314 -0.2966  0.7622 -0.1748
 4764SOL    HW122211   1.374   9.160   1.379 -0.8252  0.8635  0.3240
 4764SOL    HW222212   1.262   9.158   1.260  0.8102  0.5439 -1.2313
 4765SOL     OW22213   8.739   0.900   0.664  0.0544 -0.4564  0.2238
 4765SOL    HW122214   8.827   0.919   0.709 -0.1164  2.4593 -0.5479
 4765SOL    HW222215   8.745   0.813   0.615  2.2905 -0.6231  0.7059
 4767SOL     OW22216   4.062   9.612   0.910 -0.3564  0.2301 -0.0061
 4767SOL    HW122217   3.979   9.640   0.862  0.6779  0.3648 -1.7292
 4767SOL    HW222218   4.057   9.514   0.930 -0.1993 -0.1111 -1.6053
 4768SOL     OW22219   2.694   6.396   3.888  0.2007  0.5271 -0.0064
 4768SOL    HW122220   2.651   6.307   3.902  1.6718  0.1673  2.5187
 4768SOL    HW222221   2.754   6.393   3.808  1.9565 -1.4414  1.3342
 4769SOL     OW22222   1.132   7.845   3.235  0.0167 -0.1264 -0.4081
 4769SOL    HW122223   1.046   7.864   3.187 -0.4581  2.9225  1.4551
 4769SOL    HW222224   1.209   7.871   3.177 -0.4142 -0.3426 -1.0772
 4770SOL     OW22225   9.101   9.856   0.148  0.3507  0.5809 -0.2562
 4770SOL    HW122226   9.014   9.844   0.196  1.0968  0.7184  1.1784
 4770SOL    HW222227   9.173   9.808   0.199  1.2256  1.0123 -1.0748
 4771SOL     OW22228   5.035   3.817   0.372 -0.1424 -0.1991 -0.1587
 4771SOL    HW122229   5.108   3.784   0.313  0.0334  1.0410 -0.6609
 4771SOL    HW222230   4.947   3.807   0.325  0.0525  1.2883 -0.8804
 4772SOL     OW22231   7.199   9.466   1.569  0.6313 -0.0486  0.3934
 4772SOL    HW122232   7.282   9.484   1.516  0.0406  2.7354  0.3559
 4772SOL    HW222233   7.151   9.552   1.587 -1.4707 -1.4466  1.7149
 4773SOL     OW22234   3.119   6.300   1.772 -0.2000  0.2552 -0.5693
 4773SOL    HW122235   3.028   6.278   1.807  0.3964 -0.1814  0.7313
 4773SOL    HW222236   3.180   6.222   1.787  0.7037  1.0090 -0.3010
 4775SOL     OW22237   8.784   5.994   2.921 -0.4854 -0.0651 -0.1668
 4775SOL    HW122238   8.795   5.897   2.900 -0.1879  0.1206 -0.8695
 4775SOL    HW222239   8.823   6.012   3.012  0.2586 -0.4395 -0.4028
 4776SOL     OW22240   9.544   9.237   0.362  0.2897  0.2269 -0.4178
 4776SOL    HW122241   9.617   9.170   0.376  1.6617  1.6713 -0.4929
 4776SOL    HW222242   9.464   9.192   0.324  0.8174 -1.5550  0.5270
 4777SOL     OW22243   3.397   8.957   0.759 -0.2283 -0.3164  0.4816
 4777SOL    HW122244   3.488   8.992   0.736 -1.0703  1.8907  0.3811
 4777SOL    HW222245   3.333   8.977   0.685 -0.5796 -2.9360  0.0075
 4778SOL     OW22246   8.817   0.316   4.326 -0.6478  0.2966 -0.6207
 4778SOL    HW122247   8.725   0.357   4.333 -1.0879 -0.7132 -0.4928
 4778SOL    HW222248   8.828   0.247   4.398  0.1763  0.3434 -0.7081
 4779SOL     OW22249   3.320   1.723   1.844 -0.3388  0.2877 -0.2665
 4779SOL    HW122250   3.381   1.757   1.915  1.1768  0.5782 -1.6847
 4779SOL    HW222251   3.349   1.631   1.816  0.7259  1.2320 -2.3738
 4781SOL     OW22252   1.793   4.468   1.286  0.0926 -0.1226 -0.1996
 4781SOL    HW122253   1.789   4.417   1.199  2.3438  0.1023 -0.4765
 4781SOL    HW222254   1.837   4.556   1.270  1.9285 -0.7025  1.4142
 4783SOL     OW22255   5.640   9.448   4.246 -0.3774 -0.4231 -0.1501
 4783SOL    HW122256   5.678   9.523   4.192 -1.0139 -0.6068 -0.8632
 4783SOL    HW222257   5.549   9.424   4.211 -0.8548 -0.4622  1.0775
 4787SOL     OW22258   4.372   8.586   2.465 -0.2899  0.1341 -0.1798
 4787SOL    HW122259   4.430   8.573   2.546  0.1629 -0.6082 -0.6118
 4787SOL    HW222260   4.280   8.614   2.494 -0.7116 -2.0381  0.7258
 4788SOL     OW22261   2.157   3.924   1.887 -0.5660  0.3642  0.1313
 4788SOL    HW122262   2.131   3.973   1.971  0.7998  2.2876 -0.5428
 4788SOL    HW222263   2.244   3.959   1.854 -0.9513 -0.5971 -1.9472
 4789SOL     OW22264   2.102   9.119   1.313  0.5743 -0.1521 -0.1519
 4789SOL    HW122265   2.056   9.097   1.399  0.3567 -0.6183 -0.3859
 4789SOL    HW222266   2.035   9.118   1.239  0.5269  1.4537 -0.1506
 4790SOL     OW22267   4.171   7.045   4.033 -0.1113  0.0144 -0.4285
 4790SOL    HW122268   4.152   7.110   4.105  0.3600 -0.6094  0.2687
 4790SOL    HW222269   4.193   7.094   3.948  0.9681  0.7702  0.2766
 4791SOL     OW22270   9.511   2.875   3.429 -0.0480 -0.1719 -0.1734
 4791SOL    HW122271   9.412   2.862   3.426 -0.0542 -0.0537 -0.5538
 4791SOL    HW222272   9.544   2.863   3.523 -0.5076  0.3865  0.0645
 4793SOL     OW22273   1.824   0.932   4.439  0.4058 -0.7846  0.5261
 4793SOL    HW122274   1.725   0.941   4.444  0.2106 -1.2430 -1.8779
 4793SOL    HW222275   1.851   0.841   4.471 -0.2802 -1.8490 -1.7972
 4794SOL     OW22276   2.820   4.299   0.414 -0.2341  0.2553 -0.1441
 4794SOL    HW122277   2.915   4.333   0.415 -0.2668  0.3410 -0.0158
 4794SOL    HW222278   2.794   4.271   0.506 -0.5415  0.8051 -0.0653
 4795SOL     OW22279   2.574   8.626   4.118  0.1847 -0.1017  0.6555
 4795SOL    HW122280   2.569   8.725   4.100  0.8854 -0.0980  0.4773
 4795SOL    HW222281   2.583   8.611   4.217  1.5182  0.0654  0.5630
 4796SOL     OW22282   4.261   6.149   2.054 -0.6332  0.0561  0.0044
 4796SOL    HW122283   4.182   6.090   2.038 -0.5973 -0.0594  0.2596
 4796SOL    HW222284   4.320   6.146   1.973 -1.5081  1.1123 -0.6964
 4797SOL     OW22285   6.190   7.894   2.731  0.0313  0.5109 -0.0353
 4797SOL    HW122286   6.100   7.855   2.711 -0.7927  1.8080  1.0322
 4797SOL    HW222287   6.222   7.946   2.651 -0.7886  1.1541  0.0378
 4799SOL     OW22288   0.528   8.217   3.717  0.4503  0.0626 -0.9700
 4799SOL    HW122289   0.536   8.221   3.617  0.1367 -1.6827 -1.0803
 4799SOL    HW222290   0.468   8.141   3.742  1.1885 -0.0205  0.5764
 4800SOL     OW22291   2.703   3.336   1.861 -0.0290 -0.1910 -0.9457
 4800SOL    HW122292   2.727   3.391   1.941 -1.7247 -0.6097 -0.1153
 4800SOL    HW222293   2.666   3.396   1.790  1.2212  0.1456 -1.3318
 4801SOL     OW22294   6.806   7.738   3.706  0.0211 -0.0579 -0.4648
 4801SOL    HW122295   6.763   7.648   3.706  1.5845 -0.8370  1.0013
 4801SOL    HW222296   6.749   7.803   3.757  0.4078 -0.9995  1.2001
 4802SOL     OW22297   4.042   4.326   1.929  0.2374  0.1231  0.4768
 4802SOL    HW122298   3.964   4.285   1.977  0.6728  0.0320  1.1203
 4802SOL    HW222299   4.035   4.307   1.832  0.1288 -1.0058  0.6986
 4803SOL     OW22300   3.214   5.678   2.088  0.1854  0.1508  0.3961
 4803SOL    HW122301   3.272   5.746   2.134 -0.5607  0.6409  0.6273
 4803SOL    HW222302   3.130   5.722   2.057 -0.7489 -0.8614  1.4138
 4804SOL     OW22303   5.548   3.709   0.358 -0.0715 -0.2724 -0.2391
 4804SOL    HW122304   5.478   3.762   0.311  0.0883 -0.6138 -0.8738
 4804SOL    HW222305   5.617   3.771   0.396  1.2286 -0.1010 -2.7704
 4805SOL     OW22306   4.888   0.563   4.000 -0.4322  0.1738 -0.7156
 4805SOL    HW122307   4.870   0.596   3.907 -2.9054  0.3305 -0.2179
 4805SOL    HW222308   4.801   0.551   4.048  0.7924 -0.5619  1.3617
 4806SOL     OW22309   7.453   9.448   1.862  0.5432 -0.2488 -0.9203
 4806SOL    HW122310   7.484   9.510   1.934  0.7253 -0.2167 -1.0268
 4806SOL    HW222311   7.468   9.353   1.890  0.0717 -0.2490 -0.6699
 4807SOL     OW22312   0.797   5.341   1.473  0.0608  0.3234  0.0967
 4807SOL    HW122313   0.773   5.321   1.377  0.8798 -1.8381  0.3258
 4807SOL    HW222314   0.774   5.262   1.530 -0.6648  1.6992  1.7522
 4808SOL     OW22315   4.309   8.455   1.598 -0.1426  0.7061  0.4309
 4808SOL    HW122316   4.275   8.427   1.508  1.7603  0.2639 -0.1861
 4808SOL    HW222317   4.254   8.531   1.633 -0.7587  1.0323 -1.2096
 4809SOL     OW22318   4.169   1.576   0.749  0.4527 -0.0528 -0.4229
 4809SOL    HW122319   4.137   1.572   0.655 -0.7725  0.3977 -0.0468
 4809SOL    HW222320   4.093   1.552   0.811  0.2524  2.9847  0.5881
 4810SOL     OW22321   1.266   4.905   2.435  0.0864 -0.1836  0.2758
 4810SOL    HW122322   1.326   4.840   2.481 -0.6310  0.1864  1.7874
 4810SOL    HW222323   1.184   4.857   2.403  0.3979 -0.3649 -0.2539
 4811SOL     OW22324   3.474   9.373   3.700 -0.5116  0.1983  0.4196
 4811SOL    HW122325   3.520   9.302   3.647 -0.3149  0.0758  0.7539
 4811SOL    HW222326   3.478   9.460   3.650  0.3480  0.2555  0.5816
 4812SOL     OW22327   3.812   0.711   0.985  0.0254 -0.1004 -0.0790
 4812SOL    HW122328   3.884   0.656   1.028 -0.6220  0.3299  1.5686
 4812SOL    HW222329   3.730   0.655   0.974 -0.3994  0.3094  0.9363
 4813SOL     OW22330   5.456   1.521   3.931  0.6750 -0.2531 -0.0126
 4813SOL    HW122331   5.383   1.460   3.959 -0.6873  1.2150 -0.3226
 4813SOL    HW222332   5.530   1.467   3.889 -0.5592 -1.6646 -0.4214
 4818SOL     OW22333   1.583   0.033   0.205 -0.0194 -0.4695  0.3002
 4818SOL    HW122334   1.665   0.091   0.213 -0.9517  0.9464 -0.1774
 4818SOL    HW222335   1.611  -0.061   0.185  1.5240 -0.1648  0.9127
 4819SOL     OW22336   8.523   4.653   3.413  0.2159 -0.1539  0.2113
 4819SOL    HW122337   8.606   4.683   3.365 -1.9521  3.4845 -1.4728
 4819SOL    HW222338   8.471   4.592   3.354 -0.3136  0.8377 -0.3475
 4821SOL     OW22339   4.050   1.427   2.265 -0.6758 -0.5526  0.1082
 4821SOL    HW122340   4.144   1.456   2.281 -1.2078  0.1240  2.2003
 4821SOL    HW222341   4.044   1.328   2.268 -0.1034 -0.5791  0.3358
 4822SOL     OW22342   4.636   9.616   0.540 -0.2952 -0.2777  0.7092
 4822SOL    HW122343   4.603   9.527   0.572 -1.0593  0.4580  1.9776
 4822SOL    HW222344   4.652   9.676   0.618  0.6620  0.5508 -0.1204
 4823SOL     OW22345   8.414   0.724   2.857  0.2912 -0.0182  0.5195
 4823SOL    HW122346   8.470   0.705   2.776  2.5191  3.2276  1.1507
 4823SOL    HW222347   8.453   0.677   2.936 -0.8645 -1.7809  0.0714
 4824SOL     OW22348   6.619   1.648   3.312  0.5443 -0.5593 -0.6715
 4824SOL    HW122349   6.537   1.662   3.257 -1.0064 -0.7280  1.5192
 4824SOL    HW222350   6.625   1.720   3.381  0.5116 -2.2941  1.1857
 4825SOL     OW22351   4.287   7.301   1.540  0.4101  0.3958 -0.1098
 4825SOL    HW122352   4.385   7.301   1.560  0.8019 -1.3419 -1.8551
 4825SOL    HW222353   4.247   7.216   1.575 -0.2304  0.5337 -0.5165
 4827SOL     OW22354   0.575   1.849   2.471 -0.3266 -0.0604 -0.5269
 4827SOL    HW122355   0.490   1.797   2.475 -0.3386 -0.2051 -2.0384
 4827SOL    HW222356   0.617   1.835   2.381  0.9102  0.6042 -0.0574
 4832SOL     OW22357   3.442   9.931   0.895 -0.0555 -0.2704 -0.3162
 4832SOL    HW122358   3.435  10.017   0.947 -1.8935  0.1393 -1.1934
 4832SOL    HW222359   3.512   9.941   0.825  0.9288 -0.0830  0.6731
 4834SOL     OW22360   9.475   7.463   1.352 -0.8741 -0.2352  0.2293
 4834SOL    HW122361   9.508   7.425   1.265 -2.2570 -0.7371 -0.0840
 4834SOL    HW222362   9.487   7.562   1.352 -2.3581 -0.0263 -1.2073
 4835SOL     OW22363   4.269   3.926   0.133 -0.4344  0.2499 -0.4865
 4835SOL    HW122364   4.181   3.933   0.180  0.1244  0.9000  0.4845
 4835SOL    HW222365   4.283   4.006   0.075  1.4347  2.3848  2.7499
 4836SOL     OW22366   7.902   3.458   1.413  0.0541 -0.5625 -0.1592
 4836SOL    HW122367   7.926   3.509   1.332  0.0063  0.4905  0.4821
 4836SOL    HW222368   7.899   3.360   1.392  0.6232 -0.3408 -1.2647
 4837SOL     OW22369   9.274   8.896   3.294  0.3583  0.2904 -0.1714
 4837SOL    HW122370   9.253   8.828   3.365  0.1511 -0.1188 -0.6243
 4837SOL    HW222371   9.191   8.919   3.244  0.6033  0.2026 -0.6139
 4838SOL     OW22372   1.145   6.794   3.893 -0.4868 -0.2298  0.3119
 4838SOL    HW122373   1.103   6.703   3.884  1.4400 -1.1431  0.3436
 4838SOL    HW222374   1.146   6.839   3.804 -0.0553 -0.8725 -0.0122
 4839SOL     OW22375   1.885   8.348   1.648 -0.7422  0.1118 -0.6508
 4839SOL    HW122376   1.888   8.389   1.739  1.7914 -0.6382 -0.3359
 4839SOL    HW222377   1.978   8.322   1.621 -1.9242 -2.8711 -1.9853
 4840SOL     OW22378   9.319   0.720   3.954 -0.3036  0.1144  0.0464
 4840SOL    HW122379   9.251   0.776   4.002  0.0413 -0.7690  1.5968
 4840SOL    HW222380   9.367   0.662   4.019  0.2793 -1.0292 -1.3602
 4841SOL     OW22381   4.217   8.449   4.389  0.3637  0.3597 -0.0419
 4841SOL    HW122382   4.203   8.490   4.479  2.5330 -1.9695  1.3986
 4841SOL    HW222383   4.128   8.424   4.350 -0.4752 -0.4325  2.2964
 4842SOL     OW22384   1.171   0.941   1.159  0.0970  0.4523 -0.7095
 4842SOL    HW122385   1.129   0.853   1.137 -0.1408 -0.0326  1.5829
 4842SOL    HW222386   1.247   0.958   1.096 -0.0125 -1.2827 -1.3429
 4843SOL     OW22387   0.322   4.915   1.576  0.0636 -0.0700 -0.3885
 4843SOL    HW122388   0.294   4.830   1.531 -0.3042  0.1258 -0.5368
 4843SOL    HW222389   0.396   4.957   1.525  0.5579 -0.5367 -0.0590
 4844SOL     OW22390   0.966   4.347   2.113 -0.5540  0.2211  0.3746
 4844SOL    HW122391   0.887   4.289   2.092  0.9295 -1.8135  0.3115
 4844SOL    HW222392   0.999   4.326   2.205 -0.7191  1.8232  0.8161
 4846SOL     OW22393   1.691   2.174   0.122 -0.0477 -0.5080  0.1652
 4846SOL    HW122394   1.721   2.223   0.204 -0.5070 -0.7632  0.4923
 4846SOL    HW222395   1.742   2.088   0.115 -2.6038 -2.3181  2.2908
 4847SOL     OW22396   2.208   6.021   3.791  0.8267  0.0716  0.2038
 4847SOL    HW122397   2.157   6.055   3.712  2.5681  0.5580 -0.7413
 4847SOL    HW222398   2.194   6.082   3.869  1.6814  1.4046 -0.6762
 4849SOL     OW22399   2.760   3.516   2.447  0.0949 -0.6604 -0.6372
 4849SOL    HW122400   2.758   3.593   2.383  1.8058 -1.1548 -1.3150
 4849SOL    HW222401   2.843   3.462   2.432 -1.4114 -3.0551 -0.6555
 4851SOL     OW22402   4.787   1.103   3.764  0.3779 -0.2830 -0.0599
 4851SOL    HW122403   4.709   1.043   3.779 -0.8714  1.3711  0.2047
 4851SOL    HW222404   4.808   1.107   3.666 -0.3146 -0.1974 -0.2069
 4852SOL     OW22405   9.766   5.171   2.517 -0.3259  0.1282 -0.0941
 4852SOL    HW122406   9.723   5.150   2.605  1.1867  0.6663  0.7840
 4852SOL    HW222407   9.755   5.092   2.456  0.1290 -0.9312  1.1667
 4853SOL     OW22408   0.441   0.432   2.829 -0.0943 -0.6970 -0.2047
 4853SOL    HW122409   0.390   0.493   2.889  0.3112  1.5832 -2.1128
 4853SOL    HW222410   0.535   0.423   2.862  0.8721  2.6495 -1.8866
 4854SOL     OW22411   9.932   1.308   1.289 -0.1790  0.2565 -0.1275
 4854SOL    HW122412   9.903   1.398   1.322  0.9729  1.0483 -1.2123
 4854SOL    HW222413   9.949   1.313   1.190 -0.1521 -1.1645 -0.1981
 4857SOL     OW22414   1.539   0.870   1.717 -0.6707  0.4982  0.2543
 4857SOL    HW122415   1.477   0.831   1.650 -2.2709  0.6785  1.5993
 4857SOL    HW222416   1.514   0.838   1.809  1.5724  0.1177  0.7707
 4859SOL     OW22417   7.378   3.157   0.156  0.0866 -0.1768 -0.9907
 4859SOL    HW122418   7.326   3.129   0.075  0.2995  0.4759 -1.3522
 4859SOL    HW222419   7.466   3.109   0.158  0.1996  0.0194 -1.2949
 4861SOL     OW22420   9.334   0.896   1.936  0.1828  0.0982  0.1058
 4861SOL    HW122421   9.259   0.954   1.967 -0.8712 -0.3293 -1.5391
 4861SOL    HW222422   9.374   0.849   2.014 -1.1275  0.4994  1.0471
 4862SOL     OW22423   5.743   8.134   3.861  0.8541  0.3198  0.1363
 4862SOL    HW122424   5.788   8.053   3.823  1.1863 -0.3404  1.8823
 4862SOL    HW222425   5.650   8.141   3.824  0.9448 -0.6676 -0.2925
 4863SOL     OW22426   2.498   9.603   0.654 -0.3090  0.3685 -0.0358
 4863SOL    HW122427   2.529   9.541   0.582  1.0958  0.8336  0.1477
 4863SOL    HW222428   2.406   9.577   0.683  0.6143 -2.1876  0.6751
 4865SOL     OW22429   3.871   0.637   2.973  0.0554  0.1501  0.0314
 4865SOL    HW122430   3.822   0.707   3.026  0.4426  0.5379 -0.1153
 4865SOL    HW222431   3.969   0.644   2.991  0.1123 -0.2433 -0.1212
 4866SOL     OW22432   2.594   7.413   1.231  0.0207 -0.5378 -0.0958
 4866SOL    HW122433   2.678   7.464   1.249  0.7506 -2.1596  1.3159
 4866SOL    HW222434   2.581   7.345   1.304 -2.1048 -0.8270 -0.7232
 4867SOL     OW22435   9.978   3.269   3.196  0.6967  0.5279 -0.1552
 4867SOL    HW122436  10.066   3.223   3.206  0.9029  0.8729 -0.3626
 4867SOL    HW222437   9.914   3.233   3.263  1.7615  2.0963  1.7506
 4868SOL     OW22438   8.227   4.310   0.741  0.3618  0.4330 -0.0615
 4868SOL    HW122439   8.166   4.384   0.770 -0.3575 -0.1668 -0.0195
 4868SOL    HW222440   8.322   4.341   0.746  0.1084  1.1035  0.6799
 4869SOL     OW22441   0.893   7.580   0.080  0.6465  0.2346  0.2782
 4869SOL    HW122442   0.920   7.669   0.117  1.2028 -0.5243  1.7633
 4869SOL    HW222443   0.855   7.591  -0.011  0.4078  2.0379  0.5865
 4870SOL     OW22444   7.801   8.218   2.763 -0.1626 -0.4173 -0.6855
 4870SOL    HW122445   7.797   8.129   2.716  0.0628  0.3597 -2.2248
 4870SOL    HW222446   7.895   8.252   2.762  0.3083 -1.4498  2.4385
 4872SOL     OW22447   3.229   7.898   4.261  0.2690 -0.0876 -0.4761
 4872SOL    HW122448   3.201   7.834   4.190  0.8295 -0.3695 -0.4510
 4872SOL    HW222449   3.157   7.965   4.276 -0.4587 -0.9036 -0.2806
 4873SOL     OW22450   0.570   6.274   3.874 -0.0433 -0.0363 -0.3138
 4873SOL    HW122451   0.622   6.212   3.933 -0.3437 -1.1049 -1.1533
 4873SOL    HW222452   0.515   6.336   3.931 -0.6330 -1.3086  0.5317
 4874SOL     OW22453   2.775   0.927   3.649  0.1645  0.2778 -0.1703
 4874SOL    HW122454   2.792   0.867   3.727  2.9231  0.0196 -0.9308
 4874SOL    HW222455   2.694   0.896   3.599  0.1606 -1.3611  0.8284
 4875SOL     OW22456   1.119   2.480   0.908  0.7471  0.3887  0.1790
 4875SOL    HW122457   1.062   2.545   0.959 -1.5540 -0.2759 -1.4658
 4875SOL    HW222458   1.088   2.386   0.928 -0.3224  0.1211 -2.4843
 4876SOL     OW22459   8.174   0.599   3.159 -0.0711 -0.1099 -0.3016
 4876SOL    HW122460   8.145   0.512   3.200 -0.2621  0.3265  0.4942
 4876SOL    HW222461   8.162   0.673   3.225 -1.3960  0.7805 -1.4919
 4877SOL     OW22462   0.563   1.941   1.639  0.4284  0.6554 -0.1956
 4877SOL    HW122463   0.578   1.922   1.542  0.9848 -0.7038  0.1546
 4877SOL    HW222464   0.618   2.020   1.666  1.3303  0.1830 -0.6515
 4879SOL     OW22465   4.438   8.772   4.258 -0.7776  0.1571  0.1196
 4879SOL    HW122466   4.452   8.687   4.308 -1.9325  0.7985  1.5393
 4879SOL    HW222467   4.342   8.800   4.264 -0.6182  1.0538 -1.1602
 4880SOL     OW22468   0.813   7.564   0.833 -0.6871 -0.2381 -0.1061
 4880SOL    HW122469   0.731   7.593   0.881  0.1863  1.6120  0.2937
 4880SOL    HW222470   0.792   7.548   0.736 -1.5145  0.2171  0.0005
 4881SOL     OW22471   3.197   1.653   2.290 -0.1936  0.1042  0.3400
 4881SOL    HW122472   3.155   1.588   2.353  1.0381  0.7150  1.8252
 4881SOL    HW222473   3.236   1.729   2.341  0.3055  0.9195 -1.2134
 4882SOL     OW22474   8.902   3.547   2.599 -0.1281 -0.2699 -0.2120
 4882SOL    HW122475   8.957   3.592   2.668  0.2020  1.3759 -1.5216
 4882SOL    HW222476   8.845   3.477   2.642 -1.1638  1.8595  1.9617
 4883SOL     OW22477   2.605   6.759   3.616  0.0698 -0.3106 -0.6528
 4883SOL    HW122478   2.672   6.830   3.638  0.4898 -0.8815 -0.0381
 4883SOL    HW222479   2.587   6.704   3.698 -3.0174  1.3458 -0.1625
 4884SOL     OW22480   3.246   7.074   3.758  0.0086 -0.1678 -0.6022
 4884SOL    HW122481   3.315   7.016   3.715 -0.6929 -0.8178 -0.8800
 4884SOL    HW222482   3.233   7.157   3.703  0.2794 -0.2310 -0.7627
 4885SOL     OW22483   5.168   0.105   1.598  0.4752 -0.1504  0.3912
 4885SOL    HW122484   5.134   0.197   1.616  1.0040  0.2294 -0.5304
 4885SOL    HW222485   5.211   0.068   1.681 -1.2247 -0.2266  1.2538
 4886SOL     OW22486   2.335   6.325   4.032  0.2378  0.6775  0.1640
 4886SOL    HW122487   2.325   6.423   4.014  1.5146  1.4241  3.2162
 4886SOL    HW222488   2.397   6.285   3.965  1.6515  2.4924  0.3594
 4887SOL     OW22489   2.387   6.593   1.309  0.1266  0.2656 -0.1243
 4887SOL    HW122490   2.339   6.525   1.364  0.1337  0.4987  0.1670
 4887SOL    HW222491   2.390   6.562   1.214 -2.3024  1.1399 -0.5229
 4889SOL     OW22492   9.633   9.479   2.629  0.3827 -0.2989  0.1105
 4889SOL    HW122493   9.630   9.507   2.726 -0.2238 -3.3142  1.0009
 4889SOL    HW222494   9.604   9.556   2.572  0.3798  1.4221  2.3299
 4890SOL     OW22495   5.849   0.627   4.406 -0.0879 -0.7679  0.0813
 4890SOL    HW122496   5.898   0.563   4.346 -0.3024 -2.8667  2.0710
 4890SOL    HW222497   5.758   0.590   4.426 -0.0274 -0.0748  1.6631
 4893SOL     OW22498   7.958   1.923   1.897  0.1431 -0.1050  0.2438
 4893SOL    HW122499   7.939   1.973   1.812  1.6135 -0.6999 -0.4679
 4893SOL    HW222500   7.979   1.827   1.875 -0.9993 -0.6363  1.4330
 4895SOL     OW22501   3.905   2.078   1.970 -0.1218  0.2662 -0.5639
 4895SOL    HW122502   3.919   2.009   2.041 -2.4660 -0.4064 -0.7006
 4895SOL    HW222503   3.848   2.152   2.005 -1.3851 -0.1223 -1.7511
 4896SOL     OW22504   1.499   4.819   1.838  0.0282 -0.1025 -0.1775
 4896SOL    HW122505   1.469   4.884   1.908 -0.6012  0.6211 -1.1152
 4896SOL    HW222506   1.442   4.737   1.843 -0.5776  0.3007 -0.3957
 4897SOL     OW22507   2.624   8.548   1.973 -0.5476 -0.4221 -0.3352
 4897SOL    HW122508   2.662   8.639   1.995  2.3951 -1.0838 -2.3812
 4897SOL    HW222509   2.641   8.486   2.050 -0.7061  0.2191  0.2250
 4899SOL     OW22510   3.155   4.185   1.461 -0.3062 -0.0288 -0.4871
 4899SOL    HW122511   3.066   4.164   1.421 -1.0779  0.3243  0.9941
 4899SOL    HW222512   3.213   4.104   1.456 -0.1021  0.2248 -2.9704
 4900SOL     OW22513   4.290   3.413   3.978 -0.3601  0.3663  0.2117
 4900SOL    HW122514   4.386   3.421   3.950 -0.4348 -0.9675 -0.4483
 4900SOL    HW222515   4.284   3.427   4.077  0.2605  2.2743  0.0045
 4901SOL     OW22516   0.793   4.450   1.434  0.1346  0.5590 -0.1577
 4901SOL    HW122517   0.850   4.447   1.516  2.0233  0.3895 -1.4160
 4901SOL    HW222518   0.741   4.535   1.432  1.0387  1.1419  0.6104
 4902SOL     OW22519   4.517   8.222   3.750 -0.0776  0.2710 -0.3171
 4902SOL    HW122520   4.552   8.148   3.693  0.5461 -0.3414  0.8535
 4902SOL    HW222521   4.443   8.269   3.701  0.3591 -0.3169 -1.5750
 4903SOL     OW22522   8.078   8.532   2.508 -0.2158  0.1836 -0.3988
 4903SOL    HW122523   8.045   8.596   2.438 -2.6894 -0.8631 -0.2472
 4903SOL    HW222524   8.122   8.583   2.581 -0.8083  1.5983 -0.9975
 4904SOL     OW22525   3.130   1.013   1.199 -0.6558 -0.0550 -0.6322
 4904SOL    HW122526   3.147   0.945   1.271  1.2262  1.3807  0.3187
 4904SOL    HW222527   3.199   1.004   1.127 -0.5335  0.6640 -0.6140
 4905SOL     OW22528   0.664   9.130   1.440  0.5356  0.4300  0.1895
 4905SOL    HW122529   0.605   9.059   1.479 -0.0205 -0.8147 -2.8297
 4905SOL    HW222530   0.615   9.217   1.441 -0.9044 -0.3389 -1.0762
 4906SOL     OW22531   8.258   2.041   2.320  0.0951 -0.1932 -0.0389
 4906SOL    HW122532   8.172   2.064   2.366  0.4207 -0.6159  0.7943
 4906SOL    HW222533   8.244   2.039   2.221 -0.5427  1.0179  0.0287
 4908SOL     OW22534   8.523   4.353   2.728  0.0691  0.3653  0.3857
 4908SOL    HW122535   8.463   4.427   2.698 -1.4672 -0.2381  1.8689
 4908SOL    HW222536   8.487   4.266   2.694  0.0586 -0.0114  1.3583
 4909SOL     OW22537   9.323   9.612   3.939 -0.2753 -0.1176 -0.2980
 4909SOL    HW122538   9.352   9.705   3.919 -1.5484  0.0677 -1.3426
 4909SOL    HW222539   9.224   9.604   3.928 -0.3004 -1.3820  0.6321
 4910SOL     OW22540   4.040   0.529   0.162  0.1484 -0.4330 -0.3192
 4910SOL    HW122541   4.086   0.492   0.242 -0.5494 -1.8560 -0.5504
 4910SOL    HW222542   3.941   0.534   0.180  0.0261 -0.4551 -0.9644
 4911SOL     OW22543   0.939   6.586   1.811 -0.0936 -0.1125  0.3491
 4911SOL    HW122544   0.937   6.509   1.747 -0.4373  0.1946 -0.0040
 4911SOL    HW222545   0.875   6.656   1.781 -1.8444 -0.8827  2.1623
 4912SOL     OW22546   0.781   4.736   2.514  0.1949  0.4202 -0.0237
 4912SOL    HW122547   0.828   4.648   2.512  0.5654  0.5566  1.6980
 4912SOL    HW222548   0.714   4.737   2.589  0.2789  1.6266  0.0481
 4913SOL     OW22549   2.582   2.472   0.354 -0.3668  0.6714 -0.6275
 4913SOL    HW122550   2.589   2.402   0.425  2.4029  0.7190 -0.7860
 4913SOL    HW222551   2.609   2.433   0.266 -2.3631  0.9958 -1.3972
 4914SOL     OW22552   6.271   8.599   2.116  0.1338 -0.2518  0.0662
 4914SOL    HW122553   6.214   8.551   2.049  1.3582 -1.6241 -0.0167
 4914SOL    HW222554   6.339   8.654   2.067  1.5460 -1.8873  0.1779
 4915SOL     OW22555   3.332   4.385   1.084  0.2863  0.0770  0.2992
 4915SOL    HW122556   3.406   4.453   1.089 -0.6535  1.0207  1.8350
 4915SOL    HW222557   3.368   4.295   1.106  1.4949  0.0914 -1.4793
 4916SOL     OW22558   2.243   9.773   4.380  0.5016  0.2567 -0.3855
 4916SOL    HW122559   2.197   9.730   4.303  0.5864 -0.0412 -0.2677
 4916SOL    HW222560   2.182   9.776   4.459  0.0219  1.5792 -0.7986
 4917SOL     OW22561   1.801   7.420   0.094 -0.5619 -0.4991  0.1891
 4917SOL    HW122562   1.726   7.434   0.029  0.7231 -0.9248 -1.4196
 4917SOL    HW222563   1.884   7.460   0.057  0.6492 -2.5091  0.6679
 4919SOL     OW22564   7.775   1.507   1.550 -0.6409  0.2162  0.1909
 4919SOL    HW122565   7.720   1.501   1.633 -1.2423  1.4300 -0.0923
 4919SOL    HW222566   7.736   1.577   1.490  0.7486  0.5281 -0.3784
 4920SOL     OW22567   4.726   5.167   0.786  0.5584  0.0449  0.3655
 4920SOL    HW122568   4.687   5.171   0.878 -1.1748 -1.4111 -0.2818
 4920SOL    HW222569   4.713   5.255   0.740  0.4919  0.4318  1.1218
 4921SOL     OW22570   8.425   2.423   4.101 -0.1142 -0.3331 -0.3483
 4921SOL    HW122571   8.433   2.507   4.047  1.1573 -0.7789 -0.8730
 4921SOL    HW222572   8.449   2.441   4.196 -0.8769  0.1200 -0.2374
 4922SOL     OW22573   3.600   2.547   1.345  0.6371  0.1164 -0.3262
 4922SOL    HW122574   3.579   2.472   1.282  1.1311 -0.1162 -0.2151
 4922SOL    HW222575   3.640   2.623   1.294  0.9883 -0.0516 -0.3038
 4923SOL     OW22576   8.044   3.623   4.289  0.1304 -0.1183  0.4132
 4923SOL    HW122577   8.034   3.524   4.277 -1.1764 -0.0160  0.5097
 4923SOL    HW222578   8.096   3.642   4.371  0.4333 -0.7330  0.3653
 4924SOL     OW22579   8.638   4.951   4.312 -0.2137  0.3647  0.2745
 4924SOL    HW122580   8.616   4.911   4.223  1.9304 -0.6708  0.1733
 4924SOL    HW222581   8.695   5.032   4.299  1.0874 -0.4683  0.7433
 4925SOL     OW22582   9.838   8.177   4.087 -0.3796 -0.5139 -0.0250
 4925SOL    HW122583   9.848   8.250   4.018  0.5173 -0.5759  0.0330
 4925SOL    HW222584   9.914   8.183   4.152 -1.3898 -0.2703  1.1414
 4928SOL     OW22585   6.464   0.730   1.489  0.4324  0.4443 -0.0137
 4928SOL    HW122586   6.447   0.632   1.490  0.9759  0.3567  0.3128
 4928SOL    HW222587   6.420   0.773   1.568 -0.3543  0.5564 -0.5046
 4929SOL     OW22588   1.823   6.510   0.638 -0.3386  0.0049 -0.1533
 4929SOL    HW122589   1.780   6.531   0.550  1.6285  1.0788 -0.8942
 4929SOL    HW222590   1.916   6.478   0.623 -0.4348 -1.0715  1.4820
 4930SOL     OW22591   0.250   9.482   3.827  0.0284 -0.2420 -0.1852
 4930SOL    HW122592   0.242   9.382   3.835  0.0952 -0.3854 -1.8076
 4930SOL    HW222593   0.317   9.515   3.893  0.8911 -1.4232 -0.4545
 4931SOL     OW22594   0.583   5.588   2.081 -0.0986 -0.1816  0.0085
 4931SOL    HW122595   0.624   5.618   2.167  0.9472 -1.8200  0.1123
 4931SOL    HW222596   0.583   5.663   2.016 -0.1409  0.8349  1.1708
 4932SOL     OW22597   0.535   7.487   2.240  0.0741 -0.3839  0.4589
 4932SOL    HW122598   0.553   7.421   2.312  0.8304  1.3057  1.8504
 4932SOL    HW222599   0.438   7.512   2.241  0.1002 -0.2972  0.9630
 4934SOL     OW22600   1.715   7.802   0.772  0.1036 -0.6215  0.1829
 4934SOL    HW122601   1.617   7.785   0.774 -0.2887  1.5468  1.7795
 4934SOL    HW222602   1.755   7.763   0.689 -2.1345 -1.3054 -0.5939
 4935SOL     OW22603   8.531   1.401   2.512  0.2602 -0.4581  0.4442
 4935SOL    HW122604   8.602   1.340   2.477  0.1830  0.1920 -0.8715
 4935SOL    HW222605   8.441   1.357   2.502  0.5144 -1.5830  2.7785
 4936SOL     OW22606   6.817   8.350   3.236 -0.0798  0.4010  0.0892
 4936SOL    HW122607   6.733   8.341   3.290 -0.0396  1.8001  0.3992
 4936SOL    HW222608   6.808   8.426   3.173  0.3229 -0.5137 -1.0863
 4937SOL     OW22609   7.887   0.368   2.630  0.7280  0.6379  0.4971
 4937SOL    HW122610   7.895   0.449   2.687 -1.0546 -0.2023  1.9833
 4937SOL    HW222611   7.888   0.395   2.533  3.1663  2.1210  0.9105
 4938SOL     OW22612   0.816   3.424   1.533  0.4696  0.1818  0.0153
 4938SOL    HW122613   0.790   3.464   1.446  1.5974 -0.3567 -0.5671
 4938SOL    HW222614   0.902   3.373   1.524 -1.3010 -3.0917  0.5047
 4939SOL     OW22615   6.348   6.815   3.075 -0.8361 -0.5123 -0.0562
 4939SOL    HW122616   6.362   6.742   3.007 -0.0376  0.1111 -0.5679
 4939SOL    HW222617   6.271   6.872   3.047  0.2406  0.4554 -1.0560
 4940SOL     OW22618   7.396   2.729   1.287 -0.2599  0.1049 -0.1248
 4940SOL    HW122619   7.397   2.826   1.309 -1.3542 -0.0178  0.5214
 4940SOL    HW222620   7.391   2.676   1.372  2.9317 -0.6014 -0.3120
 4942SOL     OW22621   7.883   0.441   2.347  0.3403  0.2238  0.2909
 4942SOL    HW122622   7.977   0.465   2.370  1.2686 -3.0642  0.2071
 4942SOL    HW222623   7.851   0.498   2.271  2.5218  0.8218 -0.2004
 4943SOL     OW22624   4.689   3.788   1.045  0.1834  0.3214 -0.4568
 4943SOL    HW122625   4.662   3.880   1.073 -2.1902 -1.0784  2.1490
 4943SOL    HW222626   4.612   3.744   0.996  0.6720 -0.8550 -0.1961
 4944SOL     OW22627   9.814   2.738   3.135 -0.0814 -0.0195  0.1870
 4944SOL    HW122628   9.751   2.730   3.212  0.6537  0.4751  0.8415
 4944SOL    HW222629   9.833   2.647   3.099 -0.6384 -0.2302  0.4124
 4945SOL     OW22630   9.920   4.468   1.315 -0.1956  0.0682  0.0885
 4945SOL    HW122631   9.856   4.531   1.359 -0.7478 -0.5611  0.1824
 4945SOL    HW222632   9.925   4.489   1.218 -1.4576 -0.6454 -0.1444
 4946SOL     OW22633   9.539   0.749   2.996 -0.6143  0.0349 -0.1751
 4946SOL    HW122634   9.624   0.760   2.944 -0.4545 -0.6394 -0.0745
 4946SOL    HW222635   9.546   0.798   3.082 -0.0307 -0.6107  0.1552
 4948SOL     OW22636   9.087   9.562   1.829  0.0022 -0.0135  0.3914
 4948SOL    HW122637   9.134   9.554   1.917  1.8651 -0.9819 -0.6659
 4948SOL    HW222638   9.122   9.640   1.779 -1.7812  1.1540  0.8964
 4949SOL     OW22639   4.244   7.601   1.737  0.6079  0.0072 -0.3883
 4949SOL    HW122640   4.180   7.572   1.808  0.4284 -0.2567 -0.6582
 4949SOL    HW222641   4.207   7.578   1.647  2.0048 -2.0730 -0.4756
 4950SOL     OW22642   1.504   7.719   1.122  0.1681 -0.6980  0.4245
 4950SOL    HW122643   1.585   7.739   1.178 -0.5949  0.7240  1.0549
 4950SOL    HW222644   1.450   7.648   1.168  0.9798 -1.5674  0.0617
 4951SOL     OW22645   1.755   5.382   2.604  0.1699 -0.3888 -0.1516
 4951SOL    HW122646   1.757   5.407   2.507  0.9248  0.0551 -0.0306
 4951SOL    HW222647   1.681   5.430   2.650  0.2180 -0.1000 -0.3794
 4952SOL     OW22648   0.249   1.804   3.064  0.1652 -0.2211 -0.5621
 4952SOL    HW122649   0.176   1.740   3.090  2.1326 -2.1866  0.2885
 4952SOL    HW222650   0.283   1.852   3.145 -0.6488  1.2339 -1.0611
 4953SOL     OW22651   9.355   4.580   1.901  0.1759 -0.0739 -0.1569
 4953SOL    HW122652   9.255   4.579   1.899  0.0844 -0.9939  2.7715
 4953SOL    HW222653   9.390   4.488   1.887  0.5280 -0.0739  0.6580
 4954SOL     OW22654   0.492   6.855   3.931  0.9019 -0.3962  0.1625
 4954SOL    HW122655   0.583   6.821   3.907  1.5016 -0.0299  1.8691
 4954SOL    HW222656   0.459   6.808   4.013 -0.2928 -0.2422 -0.2174
 4955SOL     OW22657   0.168   2.875   3.595  0.1430  0.4647  0.6258
 4955SOL    HW122658   0.156   2.823   3.680  1.2460 -0.9867 -0.0863
 4955SOL    HW222659   0.262   2.908   3.589 -0.6625  2.9939  1.2890
 4956SOL     OW22660   2.721   5.477   1.413  0.1793 -0.3304 -0.2584
 4956SOL    HW122661   2.635   5.526   1.429  0.3018 -0.2705  0.2332
 4956SOL    HW222662   2.729   5.402   1.479 -0.8962 -2.2177 -2.2072
 4957SOL     OW22663   0.318   1.251   1.342 -0.1297 -0.1339  0.1056
 4957SOL    HW122664   0.224   1.288   1.341 -0.4062 -0.8038  1.0851
 4957SOL    HW222665   0.329   1.191   1.420  1.0917 -0.1699 -0.0929
 4958SOL     OW22666   4.953   1.095   3.983  0.6897 -0.5729 -0.5460
 4958SOL    HW122667   4.896   1.098   3.901  1.1239 -0.9571 -0.8638
 4958SOL    HW222668   4.970   1.000   4.009 -1.1345 -0.4448  1.1755
 4959SOL     OW22669   8.672   7.865   0.349  0.4804 -0.1834 -0.0934
 4959SOL    HW122670   8.712   7.925   0.280  0.5565 -1.2713 -1.0225
 4959SOL    HW222671   8.698   7.896   0.440  1.9606  0.1727 -0.6209
 4960SOL     OW22672   1.703   7.218   0.581 -0.4227  0.0028 -0.1825
 4960SOL    HW122673   1.698   7.257   0.489  1.6009 -2.0592 -1.2154
 4960SOL    HW222674   1.720   7.291   0.647 -1.4898  1.4536 -1.4858
 4961SOL     OW22675   8.816   5.165   0.234  0.2766 -0.1202 -0.2688
 4961SOL    HW122676   8.878   5.243   0.244  1.1721 -0.7896 -0.5601
 4961SOL    HW222677   8.750   5.184   0.162 -1.2023  1.4557  1.4337
 4962SOL     OW22678   7.953   2.826   3.452 -0.2813  0.4928 -0.4379
 4962SOL    HW122679   7.879   2.891   3.470  1.0319  1.3555  2.1428
 4962SOL    HW222680   7.996   2.799   3.539  2.7642  0.4356 -1.8948
 4963SOL     OW22681   9.665   0.140   3.173 -0.1370 -0.3249 -0.3314
 4963SOL    HW122682   9.711   0.161   3.087  0.7769 -1.3899 -0.1242
 4963SOL    HW222683   9.622   0.222   3.209  1.1016  0.5685 -0.8566
 4964SOL     OW22684   4.552   2.092   3.755 -0.4177  0.6609 -0.0999
 4964SOL    HW122685   4.601   2.150   3.691 -1.1657  0.1074 -1.1868
 4964SOL    HW222686   4.496   2.148   3.815  0.0036  1.1535 -0.1608
 4967SOL     OW22687   2.540   9.084   4.292  0.1232  0.2764 -0.2206
 4967SOL    HW122688   2.500   9.175   4.297 -0.0398  0.1638  0.5529
 4967SOL    HW222689   2.469   9.015   4.306  0.3740  0.0496 -0.0519
 4968SOL     OW22690   8.731   5.033   3.428 -0.3120 -0.4073  0.2748
 4968SOL    HW122691   8.700   5.001   3.517  0.9169 -1.2832  0.4041
 4968SOL    HW222692   8.798   5.107   3.439 -0.8931  0.1562  0.0527
 4969SOL     OW22693   0.554   0.909   2.050 -0.0634  0.5025 -0.3963
 4969SOL    HW122694   0.534   0.929   1.954  1.7616  2.8973 -0.3211
 4969SOL    HW222695   0.476   0.936   2.106 -0.5891  0.3912 -1.0665
 4970SOL     OW22696   1.528   5.129   3.625  0.4037  0.3738 -0.5605
 4970SOL    HW122697   1.555   5.210   3.678 -0.3962 -1.5280  2.9092
 4970SOL    HW222698   1.439   5.145   3.582 -0.1880  1.0486  0.8708
 4972SOL     OW22699   6.440   1.123   2.572  0.2758  0.6155  0.7691
 4972SOL    HW122700   6.356   1.137   2.624  0.0758  0.3893  0.5088
 4972SOL    HW222701   6.435   1.176   2.487 -0.7394 -1.5020 -0.5063
 4973SOL     OW22702   0.493   0.365   1.286 -0.0768  0.7299  0.3865
 4973SOL    HW122703   0.437   0.304   1.229  0.9450 -0.6877  0.8533
 4973SOL    HW222704   0.497   0.455   1.245 -2.3962  0.7707  0.1369
 4974SOL     OW22705   0.009   6.477   2.090 -0.0794  0.0067 -0.3235
 4974SOL    HW122706   0.052   6.390   2.116 -0.4276  0.1533  0.7901
 4974SOL    HW222707  -0.080   6.460   2.049  0.6412 -0.2522 -1.8039
 4975SOL     OW22708   4.775   8.285   3.369  0.0966  0.5697 -0.1356
 4975SOL    HW122709   4.846   8.215   3.376  0.6826  0.9366 -2.1973
 4975SOL    HW222710   4.812   8.365   3.322 -1.4440  1.0988 -0.4595
 4976SOL     OW22711   4.085   3.879   2.368 -0.3884 -0.1264 -0.4017
 4976SOL    HW122712   4.047   3.801   2.417 -1.4880  0.1820 -0.7559
 4976SOL    HW222713   4.011   3.941   2.342  0.5307  1.2807  0.3161
 4977SOL     OW22714   5.940   8.476   3.337  0.1294  0.3064 -0.4519
 4977SOL    HW122715   5.942   8.508   3.432 -1.4617 -0.5822 -0.1041
 4977SOL    HW222716   5.974   8.381   3.333 -0.3846  0.1319 -0.6840
 4978SOL     OW22717   0.085   9.529   2.263 -0.0042  0.3750 -0.0112
 4978SOL    HW122718   0.117   9.623   2.274 -1.7307  1.0664 -0.6286
 4978SOL    HW222719   0.073   9.510   2.166  0.9455 -0.7004  0.0807
 4979SOL     OW22720   3.945   3.652   1.681 -0.4728  0.1094  0.3327
 4979SOL    HW122721   3.903   3.731   1.635 -1.3821 -0.1170  0.7509
 4979SOL    HW222722   3.912   3.568   1.638  1.4112 -0.0275 -0.8836
 4981SOL     OW22723   9.091   9.993   2.850  0.0668  0.3129 -0.4353
 4981SOL    HW122724   9.186   9.970   2.868 -0.3897 -0.0006  1.7605
 4981SOL    HW222725   9.041   9.911   2.824  0.2258  0.3381 -0.8258
 4982SOL     OW22726   7.495   9.338   0.218 -0.1261  0.1225  0.2657
 4982SOL    HW122727   7.501   9.387   0.305  2.1456 -0.3984  0.4363
 4982SOL    HW222728   7.460   9.245   0.235  0.9202 -0.1990  0.7347
 4983SOL     OW22729   5.114   9.169   2.271  0.1018 -0.1794 -0.5391
 4983SOL    HW122730   5.047   9.180   2.198  0.0614 -0.2626 -0.5136
 4983SOL    HW222731   5.070   9.183   2.360  0.0107 -0.7374 -0.4968
 4984SOL     OW22732   2.409   4.035   1.871  0.9390 -0.2698 -0.4501
 4984SOL    HW122733   2.420   4.080   1.783  2.2267  1.5134  0.5685
 4984SOL    HW222734   2.438   4.098   1.944  0.9218 -2.0799  1.1632
 4985SOL     OW22735   2.864   5.955   2.169 -0.5629 -0.1331  0.1613
 4985SOL    HW122736   2.902   5.871   2.132  0.2001  0.0394  0.5378
 4985SOL    HW222737   2.922   6.032   2.141  0.6913 -0.1283  2.6407
 4986SOL     OW22738   4.332   0.074   2.957 -0.4081 -0.0441 -0.1279
 4986SOL    HW122739   4.344   0.172   2.942  0.5044  0.2863  2.4811
 4986SOL    HW222740   4.417   0.035   2.991 -0.9090 -1.6732 -0.6933
 4987SOL     OW22741   4.918   9.071   1.296 -0.4904 -0.1740  0.1835
 4987SOL    HW122742   4.845   9.044   1.233 -1.2896  0.8647  0.6326
 4987SOL    HW222743   4.967   8.990   1.328 -0.8894 -0.8133 -0.7938
 4989SOL     OW22744   3.101   7.778   1.466  0.5473 -0.0754 -0.2190
 4989SOL    HW122745   3.081   7.691   1.421  0.4253  1.0871 -2.5071
 4989SOL    HW222746   3.018   7.816   1.506  0.4449 -0.6464  0.1050
 4991SOL     OW22747   7.993   0.303   3.998 -0.0283  0.1149 -0.3535
 4991SOL    HW122748   8.055   0.322   3.922  1.1549  1.2043  0.8562
 4991SOL    HW222749   8.046   0.270   4.076 -1.3805 -2.2938 -0.4255
 4993SOL     OW22750   9.200   0.581   2.925  0.3271 -0.5820 -0.3123
 4993SOL    HW122751   9.126   0.586   2.993  0.2910  1.2601 -0.4645
 4993SOL    HW222752   9.240   0.671   2.913  1.6433 -1.2838 -1.3218
 4994SOL     OW22753   2.256   6.493   2.494 -0.0731 -0.1259  0.0906
 4994SOL    HW122754   2.288   6.409   2.451 -1.0528 -0.7817  0.6361
 4994SOL    HW222755   2.157   6.488   2.509 -0.2722  1.4228 -0.5490
 4995SOL     OW22756   3.069   2.763   3.628  0.0584 -1.0151 -0.0035
 4995SOL    HW122757   3.064   2.686   3.565 -1.2122 -0.5849 -0.4380
 4995SOL    HW222758   3.016   2.741   3.711  1.1769 -1.3155  0.6510
 4996SOL     OW22759   5.881   7.917   3.602  0.3948 -0.5010 -0.5358
 4996SOL    HW122760   5.816   7.975   3.554  1.0010  0.6158 -0.0211
 4996SOL    HW222761   5.959   7.972   3.632  0.3270 -1.2921  1.1591
 4997SOL     OW22762   2.738   4.225   4.136 -0.7152 -0.2560  0.3172
 4997SOL    HW122763   2.676   4.272   4.199 -0.8930 -1.8379  1.3430
 4997SOL    HW222764   2.689   4.151   4.089  0.3731 -1.5427  1.1581
 4998SOL     OW22765   8.532   7.293   4.189  0.2936  0.2152 -0.3972
 4998SOL    HW122766   8.500   7.336   4.273 -1.5983  0.0876 -1.0257
 4998SOL    HW222767   8.611   7.344   4.153  1.7009 -0.2557  1.9027
 5002SOL     OW22768   9.398   5.842   3.965  0.5287 -0.3581 -0.3336
 5002SOL    HW122769   9.400   5.915   3.897 -2.4732  0.7709  0.7230
 5002SOL    HW222770   9.489   5.831   4.005  1.9108  0.1488 -3.2475
 5003SOL     OW22771   7.360   0.141   2.847 -0.2969 -0.7317  0.2732
 5003SOL    HW122772   7.383   0.052   2.886 -1.7313 -1.2835 -0.1260
 5003SOL    HW222773   7.425   0.163   2.775 -1.9804 -3.0836 -2.0578
 5004SOL     OW22774   0.639   6.303   0.793  0.3129  0.2920  0.7027
 5004SOL    HW122775   0.561   6.325   0.852 -0.0317 -0.1299  0.4067
 5004SOL    HW222776   0.705   6.248   0.845  0.6317  1.0207  1.0884
 5005SOL     OW22777   3.639   8.851   4.162 -0.0619  0.7728 -0.3413
 5005SOL    HW122778   3.603   8.904   4.086  3.0402  1.3265 -1.5361
 5005SOL    HW222779   3.708   8.905   4.211 -0.3542 -0.4196  1.4473
 5007SOL     OW22780   2.684   1.358   2.893  0.1437 -0.2074  0.7113
 5007SOL    HW122781   2.623   1.284   2.920  1.6236 -1.9062 -0.5086
 5007SOL    HW222782   2.758   1.367   2.960  0.3254 -0.2664  0.5194
 5008SOL     OW22783   3.569   5.383   2.089  0.3396 -0.0867 -0.0604
 5008SOL    HW122784   3.606   5.337   2.008  0.3177  0.0872 -0.1690
 5008SOL    HW222785   3.640   5.388   2.160  0.7361  0.8368 -0.5114
 5009SOL     OW22786   8.466   5.823   0.054 -0.5155  0.4282 -0.6639
 5009SOL    HW122787   8.545   5.845  -0.004  0.5607  0.3116  0.7161
 5009SOL    HW222788   8.417   5.907   0.077 -0.8471  0.4935 -1.5987
 5010SOL     OW22789   4.246   0.192   1.113 -0.7286 -0.1374 -0.0020
 5010SOL    HW122790   4.204   0.202   1.023  0.0222 -1.1339 -0.4694
 5010SOL    HW222791   4.319   0.124   1.109 -1.6684 -1.2802  1.7017
 5011SOL     OW22792   9.532   1.921   0.646 -0.7038 -0.1381 -0.1667
 5011SOL    HW122793   9.628   1.907   0.670 -0.8819  2.0903  2.0394
 5011SOL    HW222794   9.526   1.967   0.558  0.2337 -0.3894 -0.3717
 5014SOL     OW22795   9.822   1.556   0.306  0.2857  0.3558 -0.5067
 5014SOL    HW122796   9.738   1.556   0.253  0.7797 -2.1467 -1.3351
 5014SOL    HW222797   9.899   1.580   0.247  0.6769 -1.2830 -0.6881
 5016SOL     OW22798   0.755   8.240   2.253 -0.3765 -0.2351  0.0029
 5016SOL    HW122799   0.841   8.194   2.276 -0.6313 -0.1514  1.0987
 5016SOL    HW222800   0.685   8.217   2.320 -1.0754  0.1022 -0.6074
 5017SOL     OW22801   8.906   4.095   1.809 -0.2341  0.1254  0.1185
 5017SOL    HW122802   9.004   4.105   1.828  0.1908 -1.0408 -1.4257
 5017SOL    HW222803   8.893   4.070   1.713 -1.9764 -1.0005  0.6363
 5018SOL     OW22804   8.736   9.432   0.412  0.0073 -0.1613 -0.3344
 5018SOL    HW122805   8.667   9.414   0.482  0.1775  1.0070  0.1359
 5018SOL    HW222806   8.753   9.530   0.405  1.5845 -0.4198 -0.4674
 5019SOL     OW22807   3.066   6.261   3.174 -0.1293 -0.3200 -0.1728
 5019SOL    HW122808   2.972   6.233   3.155 -0.5679 -0.5205  2.1087
 5019SOL    HW222809   3.078   6.272   3.273  1.9280  0.8611 -0.5228
 5021SOL     OW22810   0.031   5.872   3.625  0.3699  0.4635  0.1429
 5021SOL    HW122811   0.082   5.788   3.643  1.0620  0.5924 -1.1037
 5021SOL    HW222812   0.095   5.946   3.605 -0.2615  1.0819  0.3916
 5024SOL     OW22813   5.903   9.024   2.887 -0.3687 -0.1462  0.0820
 5024SOL    HW122814   5.985   9.081   2.892  0.2596 -0.9646 -0.6424
 5024SOL    HW222815   5.926   8.930   2.913 -1.5865  0.0987  2.1662
 5025SOL     OW22816   1.330   6.387   0.330  0.1685 -0.2199 -0.1508
 5025SOL    HW122817   1.418   6.340   0.329  0.3708  0.0418  2.1722
 5025SOL    HW222818   1.257   6.319   0.321  0.5282 -0.8119  1.1805
 5026SOL     OW22819   1.826   9.208   0.869 -0.5005 -0.1897  0.3371
 5026SOL    HW122820   1.747   9.263   0.842 -0.0572 -0.1282 -0.8437
 5026SOL    HW222821   1.807   9.112   0.852 -1.4352 -0.4680  2.7895
 5027SOL     OW22822   3.150   1.022   2.619 -0.0911 -0.1542 -0.5489
 5027SOL    HW122823   3.050   1.026   2.610 -0.1719  1.4974  0.7317
 5027SOL    HW222824   3.192   1.049   2.532 -0.7968  2.1854 -0.2237
 5028SOL     OW22825   0.271   4.350   0.938 -0.0631  0.4660 -0.3278
 5028SOL    HW122826   0.346   4.309   0.991 -0.0480  1.1738  0.2045
 5028SOL    HW222827   0.184   4.329   0.984 -0.1834 -0.1970 -0.8449
 5030SOL     OW22828   1.970   9.403   1.163  0.5167 -0.2060  0.0208
 5030SOL    HW122829   1.953   9.313   1.124 -1.2672  0.6807 -1.3412
 5030SOL    HW222830   2.067   9.412   1.185  0.7835 -2.3061 -0.1782
 5032SOL     OW22831   2.696   3.986   1.249 -0.1369 -0.2844  0.0439
 5032SOL    HW122832   2.652   4.025   1.168  0.9674 -2.6637 -1.7688
 5032SOL    HW222833   2.786   4.027   1.261 -0.8218  0.9928  0.8176
 5033SOL     OW22834   0.918   0.438   3.622 -0.2493  0.0350  0.4294
 5033SOL    HW122835   1.018   0.437   3.624 -0.2635  0.6613  2.2047
 5033SOL    HW222836   0.883   0.352   3.658 -0.3585 -0.8740 -1.7793
 5034SOL     OW22837   8.870   5.832   2.166 -0.6836  0.1013  0.0022
 5034SOL    HW122838   8.818   5.872   2.241 -0.6872  0.8582 -0.3919
 5034SOL    HW222839   8.963   5.870   2.165 -2.3439  4.6759 -3.8422
 5035SOL     OW22840   8.591   1.859   0.428 -0.1226  0.2106 -0.1228
 5035SOL    HW122841   8.565   1.847   0.524 -0.7903  1.2239 -0.1722
 5035SOL    HW222842   8.620   1.771   0.390 -2.2203 -0.6990  0.3169
 5036SOL     OW22843   7.112   9.851   2.834  0.3284 -0.5106  0.2903
 5036SOL    HW122844   7.204   9.878   2.863 -0.2120  1.3172  0.3570
 5036SOL    HW222845   7.058   9.825   2.914 -0.0741  1.1581  0.5845
 5038SOL     OW22846   3.905   2.679   4.262 -0.6422  0.2203  0.3305
 5038SOL    HW122847   3.823   2.733   4.245 -0.8999  0.6407  2.7194
 5038SOL    HW222848   3.883   2.603   4.323  0.8390  0.6719  1.4673
 5039SOL     OW22849   0.214   2.452   0.597  0.0336  0.0303  0.2226
 5039SOL    HW122850   0.192   2.509   0.677  0.7706 -0.8008  1.0222
 5039SOL    HW222851   0.168   2.489   0.516 -0.5243  1.0198  0.9862
 5040SOL     OW22852   3.999   0.559   1.121 -0.4900  0.0724  0.1755
 5040SOL    HW122853   4.002   0.467   1.080  0.3970 -1.1466  2.8651
 5040SOL    HW222854   4.092   0.593   1.132 -0.8164  1.2494 -0.6452
 5041SOL     OW22855   5.481   0.172   2.562 -0.3184 -0.7882  0.4005
 5041SOL    HW122856   5.530   0.137   2.641  0.8251  2.4621  1.2108
 5041SOL    HW222857   5.481   0.272   2.564  0.0890 -0.6060 -3.9247
 5042SOL     OW22858   9.997   8.009   0.752  0.2122 -0.7774 -0.2503
 5042SOL    HW122859   9.916   8.066   0.769  1.5949  1.1390  0.0609
 5042SOL    HW222860   9.985   7.959   0.666 -0.7151  0.5938 -0.9411
 5043SOL     OW22861   0.464   0.193   3.162  0.0703  0.1504  0.2143
 5043SOL    HW122862   0.472   0.094   3.153  1.2275  0.1035  1.5661
 5043SOL    HW222863   0.370   0.222   3.142 -0.5637 -1.3479  0.9840
 5044SOL     OW22864   4.649   1.340   3.322 -0.5578  0.0817 -0.0241
 5044SOL    HW122865   4.700   1.411   3.274 -0.2953 -0.2568 -0.2424
 5044SOL    HW222866   4.697   1.253   3.315 -2.2732 -0.7429 -2.1550
 5045SOL     OW22867   2.627   2.583   2.109  0.2291 -0.0473  0.1385
 5045SOL    HW122868   2.617   2.510   2.177  0.2936  0.5463  0.7873
 5045SOL    HW222869   2.601   2.548   2.019 -1.5067 -0.3516  0.7424
 5046SOL     OW22870   1.325   6.760   3.543 -0.7822  0.5385  0.5765
 5046SOL    HW122871   1.320   6.663   3.566 -0.7738  0.2650 -0.5300
 5046SOL    HW222872   1.393   6.805   3.600  0.0693 -0.3549  0.2814
 5047SOL     OW22873   2.337   3.430   2.234 -0.1785 -0.1477  0.1054
 5047SOL    HW122874   2.250   3.469   2.203  0.9891  1.8636 -0.7987
 5047SOL    HW222875   2.363   3.355   2.175 -0.8610 -0.1715 -0.1717
 5048SOL     OW22876   4.528   6.256   2.422 -0.2420  0.0257 -0.2813
 5048SOL    HW122877   4.596   6.298   2.483 -1.2703  1.1665  0.0964
 5048SOL    HW222878   4.505   6.321   2.349 -0.5510 -0.5535 -0.6997
 5050SOL     OW22879   9.425   0.730   2.560 -0.2089  0.2881 -0.4982
 5050SOL    HW122880   9.372   0.732   2.476 -1.0684 -0.5071  0.0129
 5050SOL    HW222881   9.363   0.728   2.639  0.5650  2.3716  0.2085
 5053SOL     OW22882   3.424   8.783   2.369 -0.1746  0.0011 -0.0908
 5053SOL    HW122883   3.328   8.800   2.346 -0.1404 -1.0484 -1.0732
 5053SOL    HW222884   3.429   8.741   2.460 -0.5127  1.6245  0.6937
 5054SOL     OW22885   0.871   6.377   1.100 -0.2514 -0.0409 -0.0435
 5054SOL    HW122886   0.808   6.301   1.086  1.5120 -1.5499  0.1323
 5054SOL    HW222887   0.956   6.344   1.139  0.2373  2.1462  0.8197
 5055SOL     OW22888   7.790   0.478   3.856  0.3425  0.6836  0.0662
 5055SOL    HW122889   7.753   0.570   3.848 -0.9852  0.1490  0.0182
 5055SOL    HW222890   7.771   0.442   3.948  2.0382  0.9631  0.5416
 5056SOL     OW22891   5.043   6.485   1.665  0.4309 -0.6058  0.1371
 5056SOL    HW122892   5.074   6.543   1.740  0.2971  0.3106 -0.5052
 5056SOL    HW222893   5.012   6.543   1.589 -0.3236 -1.5187 -0.2567
 5057SOL     OW22894   1.050   9.173   2.104 -0.3057  0.3288 -0.5710
 5057SOL    HW122895   1.017   9.174   2.198 -1.8970  0.6910 -1.1265
 5057SOL    HW222896   1.023   9.087   2.060  1.5512 -0.4069 -0.3209
 5058SOL     OW22897   9.231   1.910   1.510 -0.3287 -0.3249 -0.9274
 5058SOL    HW122898   9.286   1.871   1.436 -0.3946 -0.1180 -1.0898
 5058SOL    HW222899   9.284   1.979   1.558 -1.4367  2.1746 -3.0908
 5059SOL     OW22900   4.527   6.720   2.452 -0.3783 -0.1397 -0.3169
 5059SOL    HW122901   4.499   6.682   2.540  0.1881 -1.7404 -0.8059
 5059SOL    HW222902   4.501   6.657   2.379 -0.2421  0.8553 -1.2411
 5060SOL     OW22903   1.035   1.831   0.690 -0.0094 -0.3071  0.8668
 5060SOL    HW122904   1.077   1.919   0.671  1.5022 -0.9120  1.3085
 5060SOL    HW222905   1.041   1.811   0.788 -0.7971 -0.6729  0.8453
 5061SOL     OW22906   5.915   8.407   4.136 -0.2965 -0.4812 -0.1755
 5061SOL    HW122907   5.921   8.475   4.209 -1.0777 -0.5300 -0.0643
 5061SOL    HW222908   6.007   8.390   4.099  0.0221 -0.0269  0.3929
 5062SOL     OW22909   2.748   6.408   1.230  0.4329 -0.4355 -0.1535
 5062SOL    HW122910   2.778   6.480   1.293 -3.0000  1.1609 -0.2290
 5062SOL    HW222911   2.702   6.336   1.282  0.5274 -0.7399 -0.4924
 5063SOL     OW22912   9.376   0.952   0.605 -0.4140  0.9981 -0.2919
 5063SOL    HW122913   9.445   1.010   0.561 -0.4731  0.4105 -1.1900
 5063SOL    HW222914   9.335   0.893   0.536  0.3190 -0.7792  0.7761
 5064SOL     OW22915   0.048   4.893   1.495  0.4566 -0.0077 -0.3825
 5064SOL    HW122916   0.139   4.911   1.531  0.2587 -0.5583  0.4017
 5064SOL    HW222917   0.004   4.822   1.550 -0.6215  0.5758 -0.4881
 5065SOL     OW22918   4.511   0.127   0.821 -0.3047  0.1963 -0.1821
 5065SOL    HW122919   4.527   0.059   0.892  0.8647  1.6751  1.0034
 5065SOL    HW222920   4.573   0.110   0.744 -0.0705 -0.1418  0.0809
 5066SOL     OW22921   7.203   1.680   0.915  0.2436  0.3673  0.0474
 5066SOL    HW122922   7.150   1.632   0.845 -1.8225  1.8437  0.5601
 5066SOL    HW222923   7.241   1.764   0.877 -0.1539  0.7363  0.4679
 5067SOL     OW22924   3.408   8.016   3.746  0.0200  0.7408  0.2723
 5067SOL    HW122925   3.385   8.057   3.657 -0.4347  0.2584  0.1664
 5067SOL    HW222926   3.365   8.069   3.819 -0.6758  0.3880  0.1268
 5068SOL     OW22927   9.054   7.360   1.259  0.1064 -0.5102  0.0964
 5068SOL    HW122928   9.111   7.335   1.338  0.5703 -2.9751 -0.9544
 5068SOL    HW222929   8.959   7.369   1.288  0.5158  0.2642  1.2436
 5069SOL     OW22930   3.393   7.323   1.773  0.2565  0.1023 -0.3800
 5069SOL    HW122931   3.468   7.388   1.784  0.8233 -0.7065  0.5896
 5069SOL    HW222932   3.426   7.230   1.790 -0.8444 -0.3111 -0.4521
 5070SOL     OW22933   3.686   4.011   1.363  0.3087 -0.8778 -0.3982
 5070SOL    HW122934   3.609   4.068   1.390  2.1830  1.6479 -0.1704
 5070SOL    HW222935   3.706   4.025   1.266  1.1944 -0.5784 -0.1845
 5071SOL     OW22936   1.599   8.312   4.233 -0.2669 -0.9082  0.2490
 5071SOL    HW122937   1.672   8.270   4.179  0.3302 -0.9909  1.1110
 5071SOL    HW222938   1.618   8.410   4.245 -0.2549 -0.9436  0.5292
 5072SOL     OW22939   5.022   3.336   0.220  0.3561 -0.0902  0.4657
 5072SOL    HW122940   4.996   3.256   0.273 -0.7232  1.5300  2.4586
 5072SOL    HW222941   5.076   3.398   0.277  1.2304  0.5867 -1.0616
 5073SOL     OW22942   0.972   5.261   0.970 -0.5976 -0.2835  0.4080
 5073SOL    HW122943   1.037   5.248   1.046 -0.6117  3.1488  1.0910
 5073SOL    HW222944   1.019   5.245   0.883  0.5451 -0.0962  0.9773
 5074SOL     OW22945   5.679   8.816   1.901  0.4780 -0.2245 -0.0652
 5074SOL    HW122946   5.695   8.901   1.951 -2.7442 -0.7649  2.0594
 5074SOL    HW222947   5.741   8.745   1.936  1.3548  0.5489 -0.0141
 5075SOL     OW22948   3.425   7.868   0.291 -0.4423 -0.1903  0.0924
 5075SOL    HW122949   3.448   7.776   0.260  0.8925 -0.0096  0.5369
 5075SOL    HW222950   3.351   7.904   0.234 -0.6658 -1.3546 -0.3774
 5076SOL     OW22951   4.874   0.117   0.503  0.0693  0.5474  0.1437
 5076SOL    HW122952   4.914   0.122   0.595  0.2658  0.4477  0.0647
 5076SOL    HW222953   4.834   0.205   0.479  0.8405  0.8434 -0.0480
 5077SOL     OW22954   1.497   1.053   2.565 -0.0715 -0.4632 -0.5472
 5077SOL    HW122955   1.528   1.071   2.471 -0.9802 -1.7961 -1.1014
 5077SOL    HW222956   1.575   1.021   2.619  0.5235  0.5885 -0.7540
 5078SOL     OW22957   3.276   3.140   3.782  0.4013  0.3869  0.0255
 5078SOL    HW122958   3.212   3.068   3.758  0.8947  0.2145 -0.8052
 5078SOL    HW222959   3.349   3.102   3.839  0.0673  0.4700  0.5158
 5080SOL     OW22960   2.895   5.874   0.341 -0.2914 -0.2002  0.9159
 5080SOL    HW122961   2.956   5.809   0.296  2.5576  2.1785  1.2135
 5080SOL    HW222962   2.862   5.940   0.273 -1.9280 -0.9956  0.9178
 5081SOL     OW22963   0.361   8.896   0.223  0.4281  0.2502 -0.5401
 5081SOL    HW122964   0.286   8.878   0.159 -0.2761  0.2963  0.2607
 5081SOL    HW222965   0.356   8.990   0.254  1.2003  0.4305 -0.9713
 5083SOL     OW22966   4.062   9.028   0.973 -0.3680 -0.1461  0.6625
 5083SOL    HW122967   3.965   9.026   0.997 -1.0895 -1.4712 -2.1383
 5083SOL    HW222968   4.114   8.973   1.039 -1.6425 -0.2214  1.6180
 5084SOL     OW22969   1.804   4.499   4.023  0.2509 -0.3932  0.0935
 5084SOL    HW122970   1.889   4.551   4.020 -0.3729  0.5986 -1.6554
 5084SOL    HW222971   1.734   4.547   3.969 -1.6887 -0.7096  2.2425
 5085SOL     OW22972   5.191   8.614   2.901 -0.1105 -0.4852  0.1316
 5085SOL    HW122973   5.241   8.530   2.923 -0.1899 -0.6046 -0.1512
 5085SOL    HW222974   5.093   8.596   2.902 -0.1021 -0.6005 -0.7864
 5086SOL     OW22975   2.708   1.365   1.821  0.4127 -0.0107 -0.2039
 5086SOL    HW122976   2.748   1.290   1.874 -1.5425 -0.1396  1.1235
 5086SOL    HW222977   2.680   1.439   1.883 -0.1614  0.6571 -1.2530
 5087SOL     OW22978   3.655   1.977   3.467  0.2510 -0.1623 -0.0589
 5087SOL    HW122979   3.600   2.047   3.512 -0.2836 -0.0994 -0.7992
 5087SOL    HW222980   3.731   2.020   3.418  1.1160 -0.2701  1.1752
 5088SOL     OW22981   1.649   3.744   4.177  0.2480 -0.4834  0.2417
 5088SOL    HW122982   1.617   3.837   4.158 -1.3118 -1.0850 -0.1627
 5088SOL    HW222983   1.673   3.736   4.274 -2.2533 -0.3976  0.9067
 5090SOL     OW22984   8.189   3.298   1.892 -0.0383 -0.3816 -0.2590
 5090SOL    HW122985   8.177   3.199   1.903  0.3926 -0.3249  0.8056
 5090SOL    HW222986   8.226   3.336   1.977  0.5054  0.5763 -0.9181
 5091SOL     OW22987   4.090   8.316   1.966  0.1434  0.0665  0.6821
 5091SOL    HW122988   4.153   8.285   2.037  0.6116 -0.6170 -0.0314
 5091SOL    HW222989   4.107   8.266   1.881 -0.8243  0.4423  0.2545
 5092SOL     OW22990   0.044   9.945   2.754 -0.9172 -0.2376  0.3424
 5092SOL    HW122991   0.037   9.923   2.657  0.9246 -0.4566  0.2498
 5092SOL    HW222992   0.021   9.865   2.809 -1.4502 -0.2602  0.0913
 5093SOL     OW22993   3.246   3.271   1.931  0.7107 -0.2841 -0.0606
 5093SOL    HW122994   3.276   3.181   1.961  0.1884  0.1093  1.6777
 5093SOL    HW222995   3.156   3.264   1.887  0.9899 -0.6930 -0.5812
 5094SOL     OW22996   7.541   6.026   3.624  0.1769 -0.9364  0.3029
 5094SOL    HW122997   7.622   6.009   3.680  0.7559 -0.5102 -0.3960
 5094SOL    HW222998   7.553   5.983   3.535 -0.7167 -1.5595  0.4751
 5095SOL     OW22999   0.125   8.627   0.733  0.0315 -0.0115 -0.2875
 5095SOL    HW123000   0.082   8.685   0.802 -0.4571 -1.2422  0.4488
 5095SOL    HW223001   0.097   8.532   0.747  1.4260 -0.5420 -1.0096
 5096SOL     OW23002   5.772   0.909   0.727 -0.1606  0.0183 -0.0979
 5096SOL    HW123003   5.695   0.864   0.683  0.3027  1.2755 -2.2903
 5096SOL    HW223004   5.764   0.900   0.826 -2.8061 -0.3508 -0.3134
 5097SOL     OW23005   9.953   5.871   2.562  0.1283  0.5634  0.1518
 5097SOL    HW123006   9.976   5.858   2.658  0.7232  1.4532  0.1398
 5097SOL    HW223007  10.037   5.881   2.509 -0.1963 -0.0740 -0.4794
 5099SOL     OW23008   3.826   0.132   3.893  0.0039  0.0639 -0.2477
 5099SOL    HW123009   3.792   0.162   3.982  2.2005 -1.2939  1.0860
 5099SOL    HW223010   3.915   0.088   3.904  0.3180 -0.1260 -3.1286
 5100SOL     OW23011   2.957   3.883   2.600  0.0758  0.1835 -0.4243
 5100SOL    HW123012   3.020   3.808   2.579  1.4359  1.3186 -0.4555
 5100SOL    HW223013   2.873   3.871   2.548  0.7395 -0.7062 -1.3162
 5101SOL     OW23014   6.109   0.127   0.831  0.0713  0.0730  0.2917
 5101SOL    HW123015   6.033   0.065   0.853 -0.5251  0.8302  0.3686
 5101SOL    HW223016   6.099   0.212   0.882  0.6506  0.4165 -0.1597
 5102SOL     OW23017   5.329   9.299   2.312  0.0045  0.0569 -0.2288
 5102SOL    HW123018   5.239   9.263   2.291 -0.3624  0.6553  0.2944
 5102SOL    HW223019   5.323   9.398   2.327  0.7789  0.1371 -0.3894
 5103SOL     OW23020   9.975   9.076   2.945  0.6001  0.2836 -0.1118
 5103SOL    HW123021  10.012   9.022   3.020  0.4638 -0.4211 -0.5454
 5103SOL    HW223022   9.921   9.017   2.884 -0.0839  1.0305 -0.2418
 5104SOL     OW23023   9.966   9.321   0.849 -0.3808 -0.1152  0.7455
 5104SOL    HW123024   9.963   9.404   0.793  2.2921  1.0027  2.2014
 5104SOL    HW223025   9.965   9.241   0.789  2.3223  1.0596 -0.9440
 5105SOL     OW23026   8.395   0.442   0.532  0.2638  0.1964  0.4931
 5105SOL    HW123027   8.485   0.399   0.545 -0.0021 -0.8633 -1.1069
 5105SOL    HW223028   8.335   0.417   0.608  0.9601  0.0051  0.9917
 5106SOL     OW23029   9.148   4.638   4.060 -0.8554  0.3730 -0.5769
 5106SOL    HW123030   9.198   4.705   4.116 -0.2601  0.5033 -1.2538
 5106SOL    HW223031   9.061   4.678   4.030 -1.3174  0.1952  0.4931
 5107SOL     OW23032   4.612   9.075   2.500  0.1448  0.0979  0.5627
 5107SOL    HW123033   4.612   9.061   2.401 -0.5476  0.9161  0.4438
 5107SOL    HW223034   4.540   9.140   2.525 -0.1073 -0.6002  1.6772
 5108SOL     OW23035   9.944   9.430   2.477  0.3612 -0.5869 -0.0680
 5108SOL    HW123036   9.889   9.509   2.452  1.0544 -0.0060  0.2359
 5108SOL    HW223037  10.010   9.411   2.404  0.7118 -0.4116  0.2031
 5109SOL     OW23038   3.059   6.887   3.799 -0.1563 -0.1126  0.4152
 5109SOL    HW123039   3.103   6.977   3.797  1.6209 -0.9384  1.4406
 5109SOL    HW223040   3.015   6.873   3.888  2.1754 -1.4589  1.3832
 5110SOL     OW23041   7.773   6.079   3.442 -0.0043  0.3920 -0.2186
 5110SOL    HW123042   7.809   6.000   3.392 -3.5065 -0.7876 -1.0045
 5110SOL    HW223043   7.762   6.156   3.379 -2.6339 -0.5166 -0.9303
 5111SOL     OW23044   0.081   3.943   2.167 -0.0698  0.0318 -0.0044
 5111SOL    HW123045   0.127   3.855   2.158  0.3512  0.2843 -0.3120
 5111SOL    HW223046  -0.018   3.928   2.177  0.0039 -0.4738 -0.0504
 5112SOL     OW23047   0.169   6.050   3.071 -0.3710 -0.3800  0.4757
 5112SOL    HW123048   0.241   6.001   3.120 -1.4480 -1.9607  0.5162
 5112SOL    HW223049   0.156   6.009   2.981 -2.3078 -1.1725  1.0745
 5114SOL     OW23050   8.874   3.762   0.021 -0.0707  0.4380 -0.7555
 5114SOL    HW123051   8.912   3.736   0.110  0.3224  1.3709 -0.6457
 5114SOL    HW223052   8.779   3.731   0.015 -1.0133  2.8297  1.1071
 5115SOL     OW23053   8.494   5.585   2.542  0.4726  0.3749  0.0637
 5115SOL    HW123054   8.416   5.553   2.487 -0.1885  0.7760  0.7461
 5115SOL    HW223055   8.579   5.560   2.497 -0.0518 -0.5343 -0.4416
 5116SOL     OW23056   7.058   8.566   2.156 -0.3750  0.1253  0.4055
 5116SOL    HW123057   7.052   8.491   2.091  0.3604  0.0155  0.4663
 5116SOL    HW223058   7.008   8.645   2.119 -1.3908 -0.4703  0.4706
 5118SOL     OW23059   3.619   4.668   3.736  0.0493  0.4705 -0.3890
 5118SOL    HW123060   3.552   4.595   3.749 -0.0922  0.5919 -0.4347
 5118SOL    HW223061   3.662   4.658   3.647  1.2944 -0.5912  0.3001
 5119SOL     OW23062   9.979   1.129   3.245  0.2591 -0.0605  0.1710
 5119SOL    HW123063  10.037   1.167   3.172  0.3824 -1.1027 -0.2930
 5119SOL    HW223064  10.036   1.105   3.324  0.0310  1.7027  0.8806
 5120SOL     OW23065   5.725   1.260   4.046 -0.0063 -0.7108 -0.4802
 5120SOL    HW123066   5.821   1.284   4.029  0.0762 -0.3792  0.4134
 5120SOL    HW223067   5.673   1.270   3.962  0.5321  0.1766 -0.7224
 5121SOL     OW23068   7.749   5.341   3.625 -0.1338 -0.5871 -0.1335
 5121SOL    HW123069   7.825   5.292   3.668 -0.1892 -0.7282 -0.1965
 5121SOL    HW223070   7.720   5.417   3.684  0.1079 -0.4857 -0.1465
 5123SOL     OW23071   6.193   6.611   3.477 -0.2804 -0.2832  0.1948
 5123SOL    HW123072   6.162   6.518   3.497 -0.4100 -0.2114  0.3265
 5123SOL    HW223073   6.281   6.627   3.521  0.0342 -0.5474 -0.3295
 5124SOL     OW23074   3.929   4.510   0.773  0.2183  0.7454 -0.3739
 5124SOL    HW123075   3.934   4.410   0.781 -1.0686  0.6953 -0.1007
 5124SOL    HW223076   4.021   4.547   0.762  1.0878 -0.1674  3.0995
 5125SOL     OW23077   3.405   1.717   3.561 -0.2939  0.5115  0.3842
 5125SOL    HW123078   3.361   1.745   3.476 -0.4117  0.1257  0.3145
 5125SOL    HW223079   3.465   1.789   3.593 -0.2731  0.6712 -0.0113
 5127SOL     OW23080   1.314   3.544   2.906  0.4235  0.2965 -0.1654
 5127SOL    HW123081   1.245   3.614   2.925  1.0778  0.9104 -0.0217
 5127SOL    HW223082   1.403   3.588   2.891  0.9107 -0.5283  0.2698
 5128SOL     OW23083   2.556   0.227   2.278  0.1794  0.0310 -0.9479
 5128SOL    HW123084   2.484   0.164   2.249  0.5773 -0.6353 -0.4955
 5128SOL    HW223085   2.518   0.318   2.290 -0.5284 -0.2586 -0.9925
 5129SOL     OW23086   9.144   9.258   3.700 -0.2806 -0.9608 -0.0873
 5129SOL    HW123087   9.135   9.236   3.603  0.5634  0.5838 -0.5333
 5129SOL    HW223088   9.236   9.293   3.718 -1.8417  3.2961  0.2810
 5130SOL     OW23089   0.617   2.933   4.156 -0.5617  0.3921 -0.3177
 5130SOL    HW123090   0.677   2.923   4.077  0.5773  0.6969  0.4909
 5130SOL    HW223091   0.601   2.844   4.197 -0.9863  0.2594 -0.7775
 5131SOL     OW23092   0.928   5.869   1.322 -0.4500 -0.1421  0.2077
 5131SOL    HW123093   0.916   5.888   1.224 -0.4474 -0.3288  0.1698
 5131SOL    HW223094   0.925   5.770   1.336 -0.6423 -0.1042  0.4222
 5132SOL     OW23095   4.376   2.237   3.932 -0.2175 -0.2046 -0.2002
 5132SOL    HW123096   4.290   2.250   3.882  0.8172 -0.0810 -1.9722
 5132SOL    HW223097   4.371   2.285   4.019 -1.6637  0.4455 -0.6262
 5134SOL     OW23098   8.988   0.796   1.822  0.0952 -0.7101 -0.1829
 5134SOL    HW123099   9.034   0.724   1.874 -3.1993 -2.5728  0.2727
 5134SOL    HW223100   8.912   0.756   1.771 -1.8279  2.4865  0.0946
 5135SOL     OW23101   0.978   3.298   3.684  0.2316  0.2206 -0.2841
 5135SOL    HW123102   0.983   3.386   3.638  1.5766 -1.0553 -2.6571
 5135SOL    HW223103   0.909   3.240   3.640 -1.5187  0.4418  2.0100
 5136SOL     OW23104   1.438   0.876   0.394  0.2663 -0.6169  0.5319
 5136SOL    HW123105   1.494   0.799   0.423 -0.2891 -0.9222  0.7849
 5136SOL    HW223106   1.446   0.950   0.460  0.7555 -0.4683  0.3167
 5138SOL     OW23107   7.466   9.184   1.939 -0.0296 -0.4767 -0.2335
 5138SOL    HW123108   7.534   9.110   1.933  0.3434 -0.0676 -1.1596
 5138SOL    HW223109   7.387   9.162   1.883 -0.1160 -0.3788 -0.1502
 5139SOL     OW23110   2.598   8.751   3.152  0.5746 -0.3339  0.3654
 5139SOL    HW123111   2.637   8.843   3.160  0.5333 -0.1053 -1.5990
 5139SOL    HW223112   2.668   8.688   3.121  0.1522 -0.5713 -0.1092
 5142SOL     OW23113   9.350   6.733   1.177 -0.7133  0.4537  0.2497
 5142SOL    HW123114   9.368   6.792   1.098 -2.9145  0.4006 -0.3219
 5142SOL    HW223115   9.343   6.789   1.259 -1.6226  0.8814 -0.1070
 5143SOL     OW23116   4.631   5.252   1.077 -0.2092 -0.4710 -0.4559
 5143SOL    HW123117   4.567   5.322   1.046  0.4799  0.4951  0.2742
 5143SOL    HW223118   4.604   5.219   1.167  1.3512  1.2988  0.6975
 5145SOL     OW23119   9.920   3.244   1.042 -0.4035  0.1563 -0.5802
 5145SOL    HW123120   9.876   3.229   0.954  3.4088  0.8352 -2.6740
 5145SOL    HW223121   9.906   3.339   1.071 -1.6226 -0.0599 -0.4140
 5146SOL     OW23122   8.692   3.795   4.424  0.4672  0.0323 -0.3466
 5146SOL    HW123123   8.728   3.805   4.517  0.6148 -1.5373 -0.2203
 5146SOL    HW223124   8.644   3.708   4.416 -0.8642  0.8459 -1.3268
 5147SOL     OW23125   7.846   9.505   1.648 -0.0056  0.0317 -0.2781
 5147SOL    HW123126   7.771   9.439   1.644 -0.4460  0.4790  0.5114
 5147SOL    HW223127   7.809   9.598   1.641  0.3063  0.3378  1.8620
 5148SOL     OW23128   5.292   7.476   4.187 -0.3999  0.5420 -0.1227
 5148SOL    HW123129   5.354   7.530   4.130  0.4670 -1.1048 -0.7859
 5148SOL    HW223130   5.199   7.511   4.178  0.2162  2.2031 -0.1679
 5149SOL     OW23131   8.853   5.421   2.745  0.2938 -0.1306  0.3228
 5149SOL    HW123132   8.859   5.497   2.681 -0.7740 -0.7800 -0.5710
 5149SOL    HW223133   8.933   5.362   2.733  0.4271  0.1055  0.0482
 5150SOL     OW23134   0.451   3.247   0.085  0.0382 -0.5014  0.1581
 5150SOL    HW123135   0.535   3.301   0.083 -1.3717  1.7694 -1.5070
 5150SOL    HW223136   0.473   3.150   0.088  2.7240  0.0092 -1.5315
 5151SOL     OW23137   0.398   0.467   3.486 -0.6230  0.5348 -0.4221
 5151SOL    HW123138   0.457   0.538   3.448 -0.6809 -0.1735 -1.8492
 5151SOL    HW223139   0.450   0.382   3.495 -1.5533 -0.2207 -2.1283
 5153SOL     OW23140   1.742   0.622   2.735 -0.3027 -0.0156  1.3837
 5153SOL    HW123141   1.821   0.662   2.783  0.7978  0.0049 -0.4028
 5153SOL    HW223142   1.752   0.637   2.637 -3.4964  1.6618  1.2569
 5154SOL     OW23143   5.155   7.586   3.466  0.0690 -0.4055  0.6739
 5154SOL    HW123144   5.124   7.676   3.497 -1.7836 -0.5491 -0.7084
 5154SOL    HW223145   5.234   7.596   3.406 -0.7856  0.3942 -0.3317
 5155SOL     OW23146   0.373   1.692   1.360  0.4316 -0.1777 -0.1590
 5155SOL    HW123147   0.428   1.626   1.411  1.1066  0.7135  0.2875
 5155SOL    HW223148   0.328   1.754   1.424  0.6749  0.4682 -0.6070
 5156SOL     OW23149   0.048   6.080   3.350  0.1173  0.6379  0.3510
 5156SOL    HW123150  -0.040   6.067   3.304 -0.0396  0.8596  0.5844
 5156SOL    HW223151   0.122   6.075   3.284 -0.1147  1.0711  0.0612
 5157SOL     OW23152   9.926   6.747   0.192  0.6992 -0.1226 -0.5392
 5157SOL    HW123153  10.024   6.755   0.175  0.9520 -2.0969 -0.1630
 5157SOL    HW223154   9.909   6.675   0.259 -0.9888  0.4904 -0.2750
 5158SOL     OW23155   1.908   3.603   0.638  0.1337 -0.1261  0.1234
 5158SOL    HW123156   2.004   3.579   0.655  0.0589 -0.0588  0.6470
 5158SOL    HW223157   1.862   3.526   0.593  1.0540  0.7429 -2.4310
 5160SOL     OW23158   2.196   1.269   1.390 -0.5764 -0.2123 -0.6470
 5160SOL    HW123159   2.203   1.172   1.414  1.6429  0.3388  0.9896
 5160SOL    HW223160   2.109   1.284   1.342 -0.9990 -2.9792 -0.8642
 5161SOL     OW23161   0.234   8.336   0.103 -0.4232  0.0425  0.5457
 5161SOL    HW123162   0.178   8.408   0.061 -1.9118 -0.6564  1.3110
 5161SOL    HW223163   0.288   8.375   0.178 -1.8240  0.2261  1.4796
 5162SOL     OW23164   8.163   7.528   1.518  0.4663 -0.4642  0.0208
 5162SOL    HW123165   8.116   7.604   1.472 -2.5733 -1.6818  0.9889
 5162SOL    HW223166   8.215   7.476   1.451 -0.2768  0.4149 -1.2648
 5163SOL     OW23167   8.154   2.106   1.003  0.1511 -0.0615  0.4684
 5163SOL    HW123168   8.193   2.193   0.972  0.2642 -0.5064 -0.6571
 5163SOL    HW223169   8.056   2.116   1.018 -0.2960 -0.3878 -2.1000
 5165SOL     OW23170   7.611   0.793   3.559 -0.2490 -0.0669  0.1674
 5165SOL    HW123171   7.633   0.842   3.474  0.8523  2.0230  1.5981
 5165SOL    HW223172   7.597   0.696   3.539 -2.0778  0.7216 -2.7044
 5166SOL     OW23173   1.574   9.360   0.694  0.1537  0.3956  0.3952
 5166SOL    HW123174   1.528   9.449   0.702  1.1578  0.8714  1.0504
 5166SOL    HW223175   1.549   9.303   0.772 -0.3046  0.1900  0.0987
 5168SOL     OW23176   9.340   3.658   1.213  0.1013  0.3903 -0.6877
 5168SOL    HW123177   9.416   3.610   1.169 -0.4869 -0.8649 -0.3725
 5168SOL    HW223178   9.253   3.618   1.182 -0.3040 -1.7542  2.9009
 5169SOL     OW23179   9.835   0.295   2.453 -0.1206 -0.1140  0.3547
 5169SOL    HW123180   9.761   0.333   2.509 -0.1449  0.9128 -0.3486
 5169SOL    HW223181   9.923   0.325   2.490 -0.1047 -0.2020  0.3897
 5170SOL     OW23182   1.935   5.245   2.105  0.5136  0.9638  0.1626
 5170SOL    HW123183   1.869   5.272   2.035  0.3820  2.1273  0.7291
 5170SOL    HW223184   2.009   5.312   2.109  0.0841  1.3533  1.7093
 5171SOL     OW23185   8.206   8.362   2.347  0.3166  0.5231 -0.0559
 5171SOL    HW123186   8.306   8.367   2.355  0.2975  0.4473  0.2696
 5171SOL    HW223187   8.165   8.426   2.412  0.1943  2.4023 -1.9437
 5172SOL     OW23188   1.721   2.356   0.545 -0.5653 -0.1780 -0.2075
 5172SOL    HW123189   1.638   2.410   0.531 -0.7955  0.2538  2.5233
 5172SOL    HW223190   1.698   2.273   0.597  0.6191 -0.4076 -0.0407
 5173SOL     OW23191   1.926   4.667   3.642 -0.1975 -0.6261 -0.3824
 5173SOL    HW123192   1.860   4.596   3.665  0.6543 -1.5431 -0.7257
 5173SOL    HW223193   1.897   4.754   3.682 -1.3371 -1.1267 -0.1068
 5174SOL     OW23194   7.929   0.645   4.045  0.1073  0.0484  0.0891
 5174SOL    HW123195   7.832   0.646   4.072 -0.1690  1.9702 -0.8514
 5174SOL    HW223196   7.948   0.563   3.992 -0.1946 -2.0140  3.0656
 5175SOL     OW23197   0.808   5.554   0.433  0.7974  0.1363  1.0414
 5175SOL    HW123198   0.799   5.605   0.348  1.1453  0.4549  1.1933
 5175SOL    HW223199   0.746   5.475   0.431 -0.3175  0.9998  1.1408
 5176SOL     OW23200   2.349   5.445   4.068  0.1174 -0.5752  0.5491
 5176SOL    HW123201   2.395   5.531   4.048 -1.8419  0.9704  2.4629
 5176SOL    HW223202   2.250   5.456   4.053 -0.1872 -2.3884  1.1062
 5177SOL     OW23203   7.137   0.085   3.163 -0.5500  0.7414  0.0388
 5177SOL    HW123204   7.182   0.101   3.075 -2.3865 -2.7558 -1.6692
 5177SOL    HW223205   7.069   0.156   3.180  2.1163  3.3066  0.2867
 5178SOL     OW23206   4.959   8.369   2.569  0.1775 -0.0043 -0.4077
 5178SOL    HW123207   4.889   8.402   2.506  0.3583  0.5197 -0.3439
 5178SOL    HW223208   4.949   8.271   2.583 -0.5397  0.0651 -0.4066
 5179SOL     OW23209   7.981   1.194   3.442  0.0397 -0.0287  0.1465
 5179SOL    HW123210   7.928   1.135   3.382  0.8323 -0.8048  0.1901
 5179SOL    HW223211   8.079   1.184   3.421  0.3280 -0.2935  1.5207
 5180SOL     OW23212   9.545   3.495   3.908  0.0422 -0.4719  0.6526
 5180SOL    HW123213   9.479   3.472   3.978 -1.0703 -0.0937 -0.2559
 5180SOL    HW223214   9.582   3.587   3.925 -0.0019 -0.5002  0.8980
 5181SOL     OW23215   4.215   7.151   3.773  0.2794  0.1841  0.0577
 5181SOL    HW123216   4.291   7.201   3.732 -1.0628  1.9622 -0.3669
 5181SOL    HW223217   4.138   7.214   3.788 -1.1653 -1.5845  0.3168
 5183SOL     OW23218   4.187   2.389   1.667  0.6147  0.2031  0.0495
 5183SOL    HW123219   4.212   2.477   1.626 -0.0962  1.2695  1.8736
 5183SOL    HW223220   4.250   2.368   1.742  1.7238 -1.6050 -1.3114
 5184SOL     OW23221   8.810   1.329   3.710  0.3357 -0.6488  0.1990
 5184SOL    HW123222   8.758   1.395   3.656  0.8114 -0.3216  0.1367
 5184SOL    HW223223   8.748   1.259   3.746 -0.2175 -0.0004  0.5236
 5185SOL     OW23224   6.433   9.648   2.146  0.2756 -0.3387 -0.0319
 5185SOL    HW123225   6.335   9.663   2.134  0.0390 -1.1074  0.9394
 5185SOL    HW223226   6.449   9.579   2.216  1.5098 -0.4356 -0.3872
 5187SOL     OW23227   4.754   0.614   2.229  0.5440  0.2475 -0.2763
 5187SOL    HW123228   4.658   0.594   2.248  0.1068  1.1178 -1.5128
 5187SOL    HW223229   4.809   0.593   2.310 -0.9005  1.2427  0.9962
 5188SOL     OW23230   8.138   1.059   0.109 -0.4550 -0.1904  0.2897
 5188SOL    HW123231   8.098   1.139   0.065  0.1339 -0.2905 -0.4350
 5188SOL    HW223232   8.129   1.067   0.209  0.9088  1.4576  0.2943
 5189SOL     OW23233   2.532   5.283   0.463 -1.2127  0.2340  0.0155
 5189SOL    HW123234   2.587   5.286   0.379  0.5695  1.2028  1.1693
 5189SOL    HW223235   2.480   5.198   0.466  1.3455 -1.4218 -0.4681
 5190SOL     OW23236   2.443   5.236   4.218 -0.0918 -0.3420  0.2861
 5190SOL    HW123237   2.485   5.262   4.305 -0.1788  0.5933  0.0604
 5190SOL    HW223238   2.403   5.317   4.175  1.9079 -0.3284 -1.6798
 5191SOL     OW23239   7.603   9.442   0.468  0.1245 -0.3548 -0.2132
 5191SOL    HW123240   7.667   9.500   0.517  0.6746 -3.3017  2.6920
 5191SOL    HW223241   7.528   9.415   0.529 -2.8354  1.2738 -2.9196
 5193SOL     OW23242   8.798   0.621   3.928 -0.3656 -0.0163  0.5486
 5193SOL    HW123243   8.868   0.553   3.905  0.6325  0.5470  1.8533
 5193SOL    HW223244   8.728   0.622   3.857  0.9427 -0.6116 -0.7755
 5194SOL     OW23245   9.292   0.008   3.376 -0.1547  0.0811  0.5853
 5194SOL    HW123246   9.322  -0.025   3.465  1.1058  1.8821  0.8748
 5194SOL    HW223247   9.322  -0.055   3.305 -0.1666 -0.7839  1.3482
 5196SOL     OW23248   6.923   1.173   1.964  0.7478  0.0007  0.0795
 5196SOL    HW123249   6.959   1.237   1.896  0.4867  0.0804  0.0139
 5196SOL    HW223250   6.996   1.113   1.996  0.6877 -0.5929 -0.8853
 5197SOL     OW23251   7.891   2.289   3.070 -0.0128  0.1872  0.1217
 5197SOL    HW123252   7.960   2.344   3.024 -1.1564  0.2950 -1.5253
 5197SOL    HW223253   7.935   2.225   3.133  1.4294  1.7704  0.7575
 5198SOL     OW23254   0.632   7.324   2.458  0.2584  0.1193 -0.2907
 5198SOL    HW123255   0.707   7.388   2.441  0.5164  0.1245  0.8002
 5198SOL    HW223256   0.669   7.232   2.467 -0.3496 -0.5611 -4.0884
 5199SOL     OW23257   4.903   0.260   1.012  0.0380  0.1632 -0.0382
 5199SOL    HW123258   4.846   0.264   1.094  2.6160  1.7454  1.7766
 5199SOL    HW223259   4.933   0.352   0.988  0.0064 -0.3938 -2.2837
 5201SOL     OW23260   0.244   9.536   4.158  0.2284 -0.4748 -0.4031
 5201SOL    HW123261   0.320   9.474   4.177 -0.8078 -1.6419 -0.0005
 5201SOL    HW223262   0.271   9.630   4.181  0.8861 -1.1262  1.5877
 5202SOL     OW23263   2.123   2.440   1.704 -0.4597  0.1511  0.0812
 5202SOL    HW123264   2.223   2.448   1.712 -0.4797  0.5692 -0.1056
 5202SOL    HW223265   2.080   2.507   1.765 -0.6289 -0.4303  0.6061
 5203SOL     OW23266   0.907   7.305   0.993  0.4881  0.4900  0.1793
 5203SOL    HW123267   0.808   7.318   0.979  0.4316  0.1248  0.2351
 5203SOL    HW223268   0.939   7.369   1.063  0.0416 -0.2706  1.0968
 5205SOL     OW23269   3.851   3.125   2.600  0.3398 -0.0071 -0.1671
 5205SOL    HW123270   3.791   3.045   2.589  0.3608 -0.0412 -0.0275
 5205SOL    HW223271   3.919   3.106   2.670  2.2186 -0.9815 -2.1920
 5207SOL     OW23272   0.088   4.188   3.718 -0.1256 -0.4337  0.2618
 5207SOL    HW123273   0.113   4.180   3.621  0.0837  1.9386  0.0888
 5207SOL    HW223274   0.057   4.281   3.736  0.1423 -0.7765  2.5582
 5208SOL     OW23275   3.149   9.848   3.548 -0.0846 -0.0260 -0.6503
 5208SOL    HW123276   3.063   9.869   3.594 -0.0304  1.3242 -1.1461
 5208SOL    HW223277   3.174   9.753   3.566 -0.6083  0.1729  1.1992
 5209SOL     OW23278   1.417   4.815   1.336  0.0130  0.1450 -0.0579
 5209SOL    HW123279   1.363   4.751   1.282  0.8374 -1.2010  0.6818
 5209SOL    HW223280   1.359   4.857   1.406 -0.1176 -1.1878  0.6457
 5211SOL     OW23281   0.119   4.836   0.022 -0.2274 -0.1276 -0.3831
 5211SOL    HW123282   0.040   4.895   0.006 -0.6032 -0.7501 -0.8798
 5211SOL    HW223283   0.203   4.889   0.017 -0.4934  0.1687 -1.9517
 5212SOL     OW23284   0.533   1.541   3.556 -0.0547  0.4592  0.2726
 5212SOL    HW123285   0.434   1.530   3.550  0.0529 -0.3109 -0.1930
 5212SOL    HW223286   0.578   1.471   3.500  0.7824 -0.1036  1.6270
 5214SOL     OW23287   9.660   0.681   0.562  0.1447  0.1071  0.5504
 5214SOL    HW123288   9.719   0.697   0.642 -0.2416  1.2544  0.6158
 5214SOL    HW223289   9.565   0.676   0.592  0.1525 -1.3705  0.3935
 5216SOL     OW23290   8.854   5.006   3.175 -0.2743 -0.1891  0.1588
 5216SOL    HW123291   8.793   5.011   3.254 -0.1866 -1.0840  0.2946
 5216SOL    HW223292   8.940   5.053   3.196 -0.8033  0.8329  0.0663
 5217SOL     OW23293   3.692   8.949   3.288 -0.6345 -0.0130  0.0745
 5217SOL    HW123294   3.645   9.036   3.302 -0.3196  0.0814  0.5705
 5217SOL    HW223295   3.633   8.886   3.239 -0.6487  0.6836 -0.8081
 5218SOL     OW23296   3.465   6.905   3.601  0.2562  0.0413  1.0336
 5218SOL    HW123297   3.469   6.953   3.514  0.6685 -1.4729  0.1980
 5218SOL    HW223298   3.556   6.902   3.641  0.6868 -1.9793 -0.0157
 5220SOL     OW23299   3.491   4.200   1.425 -0.3095  0.0291 -0.2726
 5220SOL    HW123300   3.559   4.271   1.441 -1.0208  1.0002 -1.4554
 5220SOL    HW223301   3.401   4.233   1.455 -0.5263 -0.6388 -0.1848
 5221SOL     OW23302   2.492   5.513   0.003 -0.6589  0.7778 -0.1505
 5221SOL    HW123303   2.467   5.443   0.070  1.2800  0.6461  0.4459
 5221SOL    HW223304   2.409   5.562  -0.025 -1.6651  0.0247  1.4125
 5222SOL     OW23305   6.723   8.292   1.609  0.1056  0.3743  0.3482
 5222SOL    HW123306   6.636   8.336   1.588  0.1896  0.8441  0.9549
 5222SOL    HW223307   6.708   8.198   1.638 -0.2867  0.7775  1.4634
 5224SOL     OW23308   5.027   0.729   0.358  0.3610  0.8856  0.2080
 5224SOL    HW123309   4.955   0.794   0.336  0.2503  0.7958  0.3036
 5224SOL    HW223310   5.099   0.775   0.409 -1.3960  0.1846  3.5029
 5225SOL     OW23311   8.165   9.910   0.376 -0.0901  0.4199  0.4317
 5225SOL    HW123312   8.093   9.961   0.422 -0.6826  0.1983 -0.2387
 5225SOL    HW223313   8.252   9.923   0.424 -0.1984  2.2080  0.1719
 5227SOL     OW23314   3.421   1.456   1.740 -0.6644  0.3671  0.2276
 5227SOL    HW123315   3.439   1.484   1.646 -0.3504 -0.0652  0.1583
 5227SOL    HW223316   3.399   1.358   1.743  1.3346 -0.0903  0.8397
 5228SOL     OW23317   9.878   2.144   1.171 -0.2902  0.1879 -0.2066
 5228SOL    HW123318   9.899   2.152   1.074  1.0727  1.4609  0.1671
 5228SOL    HW223319   9.785   2.177   1.189 -1.1324 -1.5638 -1.2994
 5229SOL     OW23320   1.288   9.338   2.043 -0.2749 -0.1698  0.0250
 5229SOL    HW123321   1.355   9.330   1.970 -0.5925 -1.0200 -0.1803
 5229SOL    HW223322   1.199   9.307   2.011 -0.7961  1.0281  0.2717
 5231SOL     OW23323   3.774   1.819   1.448 -0.1284 -0.0654  0.2073
 5231SOL    HW123324   3.836   1.894   1.472  0.1309 -0.3656  0.4919
 5231SOL    HW223325   3.779   1.802   1.350  0.8899 -0.6520  0.3526
 5232SOL     OW23326   5.309   5.609   1.213  0.1844  0.1664 -0.2089
 5232SOL    HW123327   5.318   5.539   1.142 -0.8320  0.1561 -0.3335
 5232SOL    HW223328   5.229   5.588   1.270  0.7894  0.3636  0.7270
 5233SOL     OW23329   8.621   4.005   0.966  0.6809 -0.0565 -0.2734
 5233SOL    HW123330   8.698   4.029   1.024 -0.3222 -0.3327  1.1921
 5233SOL    HW223331   8.562   4.085   0.954  0.6368 -0.1256 -0.5275
 5234SOL     OW23332   3.428   2.100   2.541  0.2521  0.0460 -0.1249
 5234SOL    HW123333   3.484   2.130   2.618 -0.9136 -0.1548  0.8224
 5234SOL    HW223334   3.367   2.174   2.514  1.5361  0.5515 -1.6970
 5237SOL     OW23335   8.571   1.670   4.225  0.2914  0.1103  0.1279
 5237SOL    HW123336   8.482   1.688   4.185  0.5114 -1.4528 -1.1221
 5237SOL    HW223337   8.639   1.660   4.152  1.0391 -0.9997  0.9482
 5238SOL     OW23338   5.206   9.799   3.292  0.4350  0.3277  0.1533
 5238SOL    HW123339   5.164   9.853   3.366 -0.5998 -0.0534 -0.1435
 5238SOL    HW223340   5.202   9.702   3.316 -0.5931  0.1399 -0.7236
 5239SOL     OW23341   8.508   8.863   3.235 -0.1964 -0.1383 -0.1171
 5239SOL    HW123342   8.457   8.845   3.150 -2.1273 -0.9927  1.2003
 5239SOL    HW223343   8.525   8.777   3.282  1.9474  0.2187 -0.2168
 5241SOL     OW23344   9.836   0.018   2.498 -0.2919  0.4158 -0.3942
 5241SOL    HW123345   9.931  -0.007   2.515 -0.5414 -1.3167 -1.3436
 5241SOL    HW223346   9.830   0.114   2.472  0.9614  1.0420  1.5543
 5242SOL     OW23347   2.060   4.234   3.539 -0.5366  1.0459  0.4255
 5242SOL    HW123348   2.114   4.192   3.611  0.7422 -0.3411 -1.3136
 5242SOL    HW223349   2.014   4.163   3.485 -0.6447  2.0080 -0.7847
 5244SOL     OW23350   9.399   0.557   1.782  0.6417 -0.3118 -0.2592
 5244SOL    HW123351   9.468   0.484   1.779  0.7490 -0.2353  0.4644
 5244SOL    HW223352   9.324   0.529   1.841 -0.1840 -0.5977 -1.4317
 5245SOL     OW23353   1.200   5.222   4.052 -0.5009  0.1325  0.1653
 5245SOL    HW123354   1.300   5.223   4.051 -0.5068  0.4282 -1.3640
 5245SOL    HW223355   1.166   5.313   4.075 -0.4162  0.2357 -0.1137
 5247SOL     OW23356   1.181   1.839   1.268  0.5453  0.0099 -0.1474
 5247SOL    HW123357   1.091   1.828   1.226  0.9940 -0.4551 -0.9757
 5247SOL    HW223358   1.169   1.872   1.362 -0.4086  3.5983 -1.4086
 5248SOL     OW23359   2.263   1.043   2.344  0.3495 -0.3114  0.4650
 5248SOL    HW123360   2.216   0.957   2.366  0.7649 -0.6726 -0.0480
 5248SOL    HW223361   2.305   1.079   2.426  2.8232 -2.2247  0.0890
 5249SOL     OW23362   4.425   1.547   0.535  0.0171  0.0511  0.0969
 5249SOL    HW123363   4.524   1.540   0.533  0.0360  0.4527 -0.4693
 5249SOL    HW223364   4.386   1.462   0.570  0.4693 -0.9442 -1.7850
 5251SOL     OW23365   4.147   9.394   0.436  0.5838 -0.1670 -0.3156
 5251SOL    HW123366   4.129   9.412   0.339 -2.9027  1.7664  0.5903
 5251SOL    HW223367   4.129   9.477   0.489 -1.4740 -2.2486  2.3902
 5252SOL     OW23368   9.699   5.353   0.166 -0.5900  0.0105 -0.0724
 5252SOL    HW123369   9.648   5.269   0.150  0.0147 -0.8183  2.0424
 5252SOL    HW223370   9.784   5.351   0.114 -0.7474 -0.5343 -0.3112
 5255SOL     OW23371   6.085   6.861   3.144  0.2536 -0.0753  0.3791
 5255SOL    HW123372   6.098   6.860   3.243 -0.5599 -0.4855  0.4908
 5255SOL    HW223373   6.006   6.918   3.122  0.1975 -0.3009 -0.0042
 5256SOL     OW23374   4.296   0.572   0.508  0.5841 -0.9772 -0.1885
 5256SOL    HW123375   4.396   0.560   0.509  0.6333 -0.5792 -0.1723
 5256SOL    HW223376   4.253   0.490   0.471  1.0131 -0.5196 -1.7281
 5257SOL     OW23377   7.489   8.531   3.455  0.2866 -0.2049 -0.0859
 5257SOL    HW123378   7.511   8.580   3.370 -0.3049 -0.0611 -0.1564
 5257SOL    HW223379   7.541   8.572   3.531 -1.3279  1.5367  0.1234
 5258SOL     OW23380   7.268   1.951   2.981 -0.3251  0.0938 -0.9101
 5258SOL    HW123381   7.244   2.048   2.975 -0.3615  0.1320 -0.1651
 5258SOL    HW223382   7.321   1.925   2.901 -1.2714  0.4599 -1.6622
 5259SOL     OW23383   5.897   9.816   2.895  0.7110  0.2790 -0.2183
 5259SOL    HW123384   5.973   9.816   2.960  1.5183 -0.6584 -1.1562
 5259SOL    HW223385   5.931   9.831   2.803 -0.6157  3.3268 -0.2634
 5262SOL     OW23386   4.061   1.881   3.223 -0.1288  0.1377 -0.0323
 5262SOL    HW123387   4.075   1.892   3.124 -2.4674  1.4233 -0.2507
 5262SOL    HW223388   4.090   1.789   3.250 -0.4978 -0.6254 -2.1023
 5263SOL     OW23389   8.753   5.390   3.353  0.1117  0.1935  0.3439
 5263SOL    HW123390   8.729   5.470   3.297 -0.5212 -0.2211  0.0254
 5263SOL    HW223391   8.673   5.360   3.405 -0.4034 -1.9215 -1.6199
 5264SOL     OW23392   7.741   7.544   3.947  0.2122 -0.1203 -0.0864
 5264SOL    HW123393   7.730   7.641   3.926 -2.1365 -0.6614 -1.5394
 5264SOL    HW223394   7.769   7.534   4.042  1.5323  2.0174 -0.2065
 5266SOL     OW23395   8.188   9.564   4.188 -0.4223  0.2877  0.3619
 5266SOL    HW123396   8.198   9.514   4.102 -0.6392  1.0893 -0.1395
 5266SOL    HW223397   8.142   9.506   4.255 -1.0563 -0.0372 -0.3493
 5267SOL     OW23398   2.975   2.021   4.392  0.7732 -0.3506 -0.2551
 5267SOL    HW123399   2.928   2.039   4.306 -0.7155 -1.5553  0.2725
 5267SOL    HW223400   2.994   1.923   4.400 -0.1791 -0.4360  1.2873
 5268SOL     OW23401   9.097   6.112   3.315 -0.5275  0.1635 -0.0743
 5268SOL    HW123402   9.150   6.050   3.374 -0.6635  0.9357  0.8643
 5268SOL    HW223403   9.116   6.206   3.341 -1.8385  0.4646 -0.1906
 5269SOL     OW23404   7.944   7.648   1.730 -0.6648  0.3715  0.0043
 5269SOL    HW123405   7.959   7.740   1.765  0.9379 -0.5820  1.9723
 5269SOL    HW223406   8.011   7.627   1.659  2.1653 -0.8904  2.8912
 5272SOL     OW23407   1.771   6.889   2.636  0.3293 -0.4693  0.1836
 5272SOL    HW123408   1.706   6.821   2.602 -0.8381  0.9172 -0.4259
 5272SOL    HW223409   1.786   6.875   2.734  0.0561 -1.5597  0.0715
 5273SOL     OW23410   1.448   6.492   2.045  0.8774 -0.0910 -0.4479
 5273SOL    HW123411   1.448   6.446   1.956  0.9681 -2.2700  0.6232
 5273SOL    HW223412   1.402   6.580   2.037  0.4560 -0.4633 -2.5438
 5275SOL     OW23413   1.776   8.206   0.483  0.0832 -0.1260  0.1076
 5275SOL    HW123414   1.850   8.164   0.537  1.0303  1.2055 -0.1345
 5275SOL    HW223415   1.726   8.271   0.539  1.7005  2.0056 -0.8454
 5276SOL     OW23416   9.452   1.212   3.975 -0.0451 -0.0297  0.0443
 5276SOL    HW123417   9.435   1.240   3.881  0.8694 -0.4309 -0.2478
 5276SOL    HW223418   9.509   1.130   3.976 -2.3830 -1.7015  0.9090
 5278SOL     OW23419   4.758   7.320   1.437  0.3586  0.9124  0.1750
 5278SOL    HW123420   4.678   7.330   1.378  0.6652 -0.0550 -0.4130
 5278SOL    HW223421   4.837   7.294   1.381  0.6267 -0.1396  1.0319
 5280SOL     OW23422   8.878   1.101   1.132 -0.0059 -0.0389  0.0902
 5280SOL    HW123423   8.792   1.050   1.139 -0.5752  0.8823 -0.1139
 5280SOL    HW223424   8.927   1.096   1.219 -0.3019 -0.5092  0.2284
 5281SOL     OW23425   3.400   4.243   2.884 -0.2243 -0.6411  0.5021
 5281SOL    HW123426   3.475   4.237   2.819 -0.7214 -1.4735  0.0022
 5281SOL    HW223427   3.318   4.201   2.845 -0.7889 -0.2853  1.2834
 5282SOL     OW23428   1.796   7.723   1.671 -0.8845 -0.2240 -0.5143
 5282SOL    HW123429   1.819   7.817   1.647 -0.3669 -1.3369 -4.7797
 5282SOL    HW223430   1.697   7.712   1.672 -0.9791  0.5553  1.0689
 5283SOL     OW23431   0.073   3.009   2.498 -0.3917  0.2477  0.7559
 5283SOL    HW123432   0.152   2.965   2.541 -0.4370 -0.7975 -0.2073
 5283SOL    HW223433  -0.000   3.020   2.565 -0.7451 -2.0761  0.7953
 5285SOL     OW23434   7.988   2.122   0.058 -0.1581  0.2682 -0.0691
 5285SOL    HW123435   8.046   2.162  -0.014  1.8953 -1.4050  0.6140
 5285SOL    HW223436   8.029   2.139   0.147 -1.0479 -0.4092  0.4782
 5287SOL     OW23437   4.905   6.313   2.039  0.4891  0.6157  0.6551
 5287SOL    HW123438   4.893   6.284   2.134  0.0874  1.6140  0.9162
 5287SOL    HW223439   4.869   6.406   2.027  0.2312  0.3757 -0.5528
 5288SOL     OW23440   0.877   4.476   0.549  0.3137 -0.2821 -0.0661
 5288SOL    HW123441   0.801   4.502   0.609 -0.6126  1.8006 -2.0881
 5288SOL    HW223442   0.954   4.446   0.605 -0.5324  1.5980  2.1870
 5289SOL     OW23443   6.640   9.117   3.164 -0.0899 -0.0987 -0.1901
 5289SOL    HW123444   6.628   9.036   3.107  0.0662 -0.3169  0.0826
 5289SOL    HW223445   6.650   9.198   3.106  0.4907 -0.3752 -0.4796
 5290SOL     OW23446   8.877   6.107   4.300 -0.1744 -0.3952  0.7156
 5290SOL    HW123447   8.934   6.070   4.226 -0.3143 -1.2394  1.0296
 5290SOL    HW223448   8.781   6.104   4.272  0.0321  2.5657 -0.4880
 5291SOL     OW23449   5.078   1.499   3.991  0.2640 -0.1756  0.3709
 5291SOL    HW123450   5.003   1.565   4.000 -0.0400 -0.6896  1.8616
 5291SOL    HW223451   5.134   1.502   4.074  0.3257 -1.6890  0.3983
 5292SOL     OW23452   7.952   9.788   1.341 -0.1204  0.0118 -0.0253
 5292SOL    HW123453   7.918   9.818   1.430 -0.0334  1.5266 -0.4851
 5292SOL    HW223454   8.052   9.781   1.343 -0.1426 -0.2795  0.0872
 5293SOL     OW23455   2.937   3.199   1.929 -0.1613  0.0109  0.2995
 5293SOL    HW123456   2.845   3.235   1.915 -0.1079  0.0959  0.1601
 5293SOL    HW223457   2.938   3.138   2.008 -0.1665  0.6515  0.7967
 5294SOL     OW23458   8.691   4.427   0.536 -0.6250 -0.0202  0.3146
 5294SOL    HW123459   8.711   4.461   0.629  1.2443  1.3858 -0.5500
 5294SOL    HW223460   8.641   4.497   0.485 -0.5595 -0.2852 -0.1158
 5295SOL     OW23461   0.724   7.061   0.182 -0.3066 -0.6908 -0.4600
 5295SOL    HW123462   0.664   7.013   0.246  0.2806  0.7261  1.1604
 5295SOL    HW223463   0.669   7.118   0.121 -0.7724 -1.1369 -0.4588
 5296SOL     OW23464   4.129   1.357   0.135  0.6508 -0.3740 -0.4253
 5296SOL    HW123465   4.094   1.358   0.041 -0.1155  0.0903 -0.1395
 5296SOL    HW223466   4.192   1.434   0.148  0.0898  0.0697 -0.3135
 5297SOL     OW23467   9.810   6.156   0.133  0.2904  0.0256  0.3578
 5297SOL    HW123468   9.735   6.145   0.068 -0.0251 -0.9685  0.8707
 5297SOL    HW223469   9.897   6.156   0.084  0.2601 -3.7377  0.1320
 5298SOL     OW23470   9.271   8.892   2.022  0.4424  0.1728  0.3673
 5298SOL    HW123471   9.355   8.864   2.068  1.5211  1.4862 -0.7847
 5298SOL    HW223472   9.292   8.930   1.932 -1.4737 -0.4822 -0.3993
 5299SOL     OW23473   0.708   6.741   3.384  0.3158 -0.1373 -0.2059
 5299SOL    HW123474   0.679   6.799   3.308  0.2099  0.4281  0.2574
 5299SOL    HW223475   0.631   6.723   3.445  0.8424  1.1527  0.8825
 5300SOL     OW23476   3.695   9.452   1.620 -0.3606 -0.5485 -0.2279
 5300SOL    HW123477   3.725   9.516   1.691 -3.1495 -0.7844  1.2580
 5300SOL    HW223478   3.703   9.359   1.654 -1.4246 -0.6830 -0.3328
 5301SOL     OW23479   9.360   9.417   1.140  0.3409 -0.1704 -0.1618
 5301SOL    HW123480   9.299   9.383   1.212 -0.3267 -1.6437 -1.4003
 5301SOL    HW223481   9.311   9.485   1.085  0.4750  0.1048  0.0567
 5302SOL     OW23482   8.313   9.833   3.750  0.1227 -0.4273 -0.2974
 5302SOL    HW123483   8.370   9.842   3.668  0.0498 -0.0104 -0.3067
 5302SOL    HW223484   8.239   9.901   3.746 -2.2171 -2.9627 -1.7705
 5303SOL     OW23485   5.784   7.176   2.612  0.6413  0.5786 -0.4138
 5303SOL    HW123486   5.750   7.166   2.518  0.8204 -0.5916 -0.3578
 5303SOL    HW223487   5.714   7.148   2.677  2.2344 -3.5731 -0.3387
 5304SOL     OW23488   1.364   0.136   3.247  0.1632 -0.3511  0.1914
 5304SOL    HW123489   1.441   0.193   3.276  0.4860  0.1720 -1.6237
 5304SOL    HW223490   1.370   0.119   3.148 -1.9338 -0.4781  0.0604
 5305SOL     OW23491   3.328   9.739   1.044 -0.3314  0.2929 -0.0234
 5305SOL    HW123492   3.230   9.754   1.062 -0.4387  1.6990 -1.6433
 5305SOL    HW223493   3.363   9.813   0.987  2.0532  0.5885  1.7399
 5306SOL     OW23494   3.782   9.270   2.223 -0.1488 -0.0778  0.1746
 5306SOL    HW123495   3.719   9.296   2.151 -0.0337  1.3810  0.5895
 5306SOL    HW223496   3.833   9.189   2.195 -0.9296 -0.2099 -0.8881
 5307SOL     OW23497   8.892   8.439   1.819  0.7373  0.0305 -0.7651
 5307SOL    HW123498   8.872   8.375   1.745  2.0588 -1.7639  0.3645
 5307SOL    HW223499   8.887   8.533   1.785 -3.3234 -0.5239 -1.9922
 5309SOL     OW23500   1.178   0.306   2.679  0.4127  0.4765  0.2339
 5309SOL    HW123501   1.110   0.375   2.657 -0.7508 -1.2337 -1.7125
 5309SOL    HW223502   1.263   0.327   2.631  0.0038  0.4370 -0.5025
 5310SOL     OW23503   4.872   0.913   1.554  0.6601 -0.6976  0.0560
 5310SOL    HW123504   4.915   0.843   1.611  1.4954 -0.9698 -0.9004
 5310SOL    HW223505   4.773   0.908   1.564  0.7872 -0.9251  1.2685
 5311SOL     OW23506   6.706   8.034   1.650 -0.1779  0.4991  0.5247
 5311SOL    HW123507   6.777   7.977   1.691 -0.7487 -0.1669  0.6075
 5311SOL    HW223508   6.647   7.978   1.593 -1.1313  0.8777  1.1119
 5312SOL     OW23509   9.927   0.903   3.866 -0.3783 -0.0686 -0.1386
 5312SOL    HW123510  10.005   0.965   3.878  0.5399 -1.1216 -0.6407
 5312SOL    HW223511   9.886   0.884   3.955 -0.7074  1.2944  0.0209
 5313SOL     OW23512   0.766   5.950   3.848  0.0270 -0.7953  0.4127
 5313SOL    HW123513   0.717   5.887   3.908 -0.7505  0.1718  0.7945
 5313SOL    HW223514   0.864   5.943   3.866 -0.0860 -1.5792  0.7535
 5314SOL     OW23515   9.349   5.584   3.882 -0.0979  0.1425  0.1370
 5314SOL    HW123516   9.388   5.667   3.923  0.0387  0.2486 -0.2113
 5314SOL    HW223517   9.250   5.592   3.877 -0.0499  0.4507 -0.2749
 5315SOL     OW23518   1.882   4.900   3.768  0.1295 -0.4087  0.5462
 5315SOL    HW123519   1.899   4.914   3.865 -0.4884  0.0212  0.5987
 5315SOL    HW223520   1.950   4.949   3.714 -0.6140  0.8750  0.7516
 5316SOL     OW23521   1.451   8.992   3.797  0.5882  0.0155  0.1658
 5316SOL    HW123522   1.367   9.046   3.801  1.7605  1.8479  0.2267
 5316SOL    HW223523   1.507   9.010   3.878  1.4152 -0.5992 -0.2558
 5317SOL     OW23524   0.620   8.215   1.905 -0.0849 -0.5357  0.0599
 5317SOL    HW123525   0.550   8.222   1.976 -0.7352 -3.4019 -0.2218
 5317SOL    HW223526   0.710   8.204   1.947 -0.2446 -0.4357  0.4258
 5318SOL     OW23527   0.741   0.585   1.641  0.0691 -0.3038 -0.6191
 5318SOL    HW123528   0.773   0.662   1.697  2.7178 -1.4874 -0.4430
 5318SOL    HW223529   0.735   0.615   1.545 -0.3962  0.5591 -0.3238
 5319SOL     OW23530   1.779   1.236   0.711  0.0643 -0.0879 -0.2312
 5319SOL    HW123531   1.703   1.301   0.716  0.6927  0.6966 -0.8849
 5319SOL    HW223532   1.766   1.165   0.780 -0.6092  0.7451  0.5130
 5320SOL     OW23533   7.475   6.624   3.385  0.1702 -0.1405 -0.0141
 5320SOL    HW123534   7.409   6.560   3.423 -0.3519  1.2454  1.4700
 5320SOL    HW223535   7.446   6.718   3.405  1.1493  0.5621 -1.7618
 5321SOL     OW23536   7.813   4.742   0.478 -0.0367 -0.8243 -0.3336
 5321SOL    HW123537   7.888   4.720   0.416 -0.3211 -2.4936 -0.0930
 5321SOL    HW223538   7.837   4.823   0.531  1.1316 -0.6950 -1.0314
 5322SOL     OW23539   9.472   4.597   3.183 -0.0144 -0.0665 -0.2280
 5322SOL    HW123540   9.539   4.671   3.175  1.2990 -1.0764  1.0408
 5322SOL    HW223541   9.516   4.510   3.162 -1.0684 -0.6842  0.1089
 5323SOL     OW23542   8.517   7.413   1.921 -0.2140  0.4229 -0.4111
 5323SOL    HW123543   8.440   7.471   1.948  0.9105  0.4978  2.9192
 5323SOL    HW223544   8.603   7.460   1.939  0.6683 -1.0240 -0.7256
 5324SOL     OW23545   1.757   2.083   1.011 -0.3473 -0.9526  0.4207
 5324SOL    HW123546   1.678   2.022   1.017 -0.9765 -0.1052  0.7075
 5324SOL    HW223547   1.805   2.085   1.098 -1.0065 -0.1138  0.7611
 5325SOL     OW23548   2.209   0.757   2.514  0.1762  0.3831  0.2956
 5325SOL    HW123549   2.277   0.741   2.442  1.0014  1.3368  0.8412
 5325SOL    HW223550   2.201   0.675   2.571  1.0889  0.3499  0.3921
 5326SOL     OW23551   3.174   8.320   1.801  0.5659  0.0510  0.1050
 5326SOL    HW123552   3.132   8.369   1.877 -0.7940 -0.8219 -0.0585
 5326SOL    HW223553   3.116   8.328   1.720  0.0957 -2.1721  0.1931
 5327SOL     OW23554   3.242   0.654   3.943 -0.3251 -0.4982 -0.3135
 5327SOL    HW123555   3.210   0.643   4.037 -1.0535 -1.5197 -0.6743
 5327SOL    HW223556   3.331   0.699   3.943 -1.5316  1.9406  0.7163
 5328SOL     OW23557   3.267   6.805   2.263 -0.6132  0.0612 -0.4369
 5328SOL    HW123558   3.240   6.790   2.359 -0.7105  0.3181 -0.4233
 5328SOL    HW223559   3.214   6.746   2.204 -0.7819  0.1327 -0.3579
 5329SOL     OW23560   0.685   5.297   0.443  0.4803  0.0610 -0.1640
 5329SOL    HW123561   0.770   5.253   0.414  1.7192  1.5179  1.1291
 5329SOL    HW223562   0.608   5.257   0.394  1.9437 -1.0713 -1.5921
 5330SOL     OW23563   8.879   0.655   0.258  0.0432 -0.3646  0.3252
 5330SOL    HW123564   8.967   0.654   0.305  0.2432 -0.9337 -0.0465
 5330SOL    HW223565   8.894   0.667   0.159 -0.2003 -1.9943  0.0805
 5331SOL     OW23566   1.286   2.550   0.076  0.2467  0.4746 -0.1275
 5331SOL    HW123567   1.335   2.463   0.082 -1.7016 -0.5601  1.3100
 5331SOL    HW223568   1.317   2.611   0.149  0.7612  0.5340 -0.3973
 5332SOL     OW23569   2.509   0.060   3.129 -0.5465 -0.2995  0.1280
 5332SOL    HW123570   2.567   0.139   3.147 -0.1635 -0.6240  0.3251
 5332SOL    HW223571   2.500   0.005   3.212  2.5847 -2.7058 -1.0117
 5333SOL     OW23572   3.251   6.059   4.038  0.0005 -0.7435  0.0846
 5333SOL    HW123573   3.156   6.046   4.063  0.1319  0.3923  1.2103
 5333SOL    HW223574   3.294   6.124   4.100  1.2846 -0.5777 -0.9372
 5334SOL     OW23575   8.440   4.060   0.634 -0.1073  0.0410 -0.0764
 5334SOL    HW123576   8.420   4.074   0.731  0.3592  0.4971 -0.0426
 5334SOL    HW223577   8.539   4.061   0.620 -0.1858  0.4661 -0.6263
 5335SOL     OW23578   7.735   0.849   2.303  0.1056 -0.1316  0.2294
 5335SOL    HW123579   7.783   0.787   2.366  0.3538  1.4528  1.6248
 5335SOL    HW223580   7.771   0.835   2.211  1.2844 -0.9580  0.7845
 5337SOL     OW23581   9.971   3.888   1.767 -0.1311 -0.1821 -0.0614
 5337SOL    HW123582   9.991   3.977   1.809  3.3509 -1.2152  0.6570
 5337SOL    HW223583   9.932   3.903   1.676 -0.6884  2.0888  0.5064
 5338SOL     OW23584   9.105   2.266   3.580  0.2816 -0.7688 -0.2250
 5338SOL    HW123585   9.176   2.330   3.548  0.2739  0.1860  1.5736
 5338SOL    HW223586   9.044   2.244   3.505 -1.0475  3.1127 -0.3987
 5340SOL     OW23587   7.762   7.124   2.362  0.1257  0.1401  0.8139
 5340SOL    HW123588   7.755   7.129   2.462  1.3568  0.2194  0.9014
 5340SOL    HW223589   7.793   7.212   2.327 -3.0457  1.0182  0.0945
 5341SOL     OW23590   6.488   8.952   2.447 -0.4615 -0.4577 -0.0827
 5341SOL    HW123591   6.442   8.871   2.482 -0.0032 -1.0495 -0.8490
 5341SOL    HW223592   6.461   8.968   2.352 -1.3327  0.8754  0.3775
 5342SOL     OW23593   9.818   8.672   2.352  0.6228  0.7456  0.2186
 5342SOL    HW123594   9.719   8.664   2.357  0.5614  1.0313 -0.5254
 5342SOL    HW223595   9.856   8.590   2.308  0.7052  0.6948  0.3834
 5343SOL     OW23596   3.362   1.542   3.093  0.6024 -0.7568 -0.1420
 5343SOL    HW123597   3.328   1.561   3.185 -2.2567  1.3463 -1.5698
 5343SOL    HW223598   3.386   1.628   3.047 -1.0468 -1.5054 -2.4790
 5344SOL     OW23599   0.884   8.300   3.274 -0.5933 -0.0791  0.2379
 5344SOL    HW123600   0.799   8.299   3.222 -1.3192  1.9002  1.3323
 5344SOL    HW223601   0.865   8.275   3.369  0.1593 -0.2737  0.3438
 5345SOL     OW23602   4.507   8.495   4.415  0.3051 -0.5424  0.5362
 5345SOL    HW123603   4.409   8.502   4.399  0.2497 -1.5648  0.4075
 5345SOL    HW223604   4.529   8.405   4.451  1.2452 -0.4377  0.2411
 5346SOL     OW23605   9.319   1.445   1.598 -0.1747 -0.4340 -0.0202
 5346SOL    HW123606   9.301   1.423   1.502  1.0428 -0.5793 -0.2171
 5346SOL    HW223607   9.302   1.543   1.613 -0.4453 -0.4265 -0.3638
 5347SOL     OW23608   0.217   1.070   4.181  0.1451  0.1203  0.2938
 5347SOL    HW123609   0.239   1.032   4.091  0.8573 -0.4432  0.6989
 5347SOL    HW223610   0.144   1.016   4.223  0.4641 -0.1997  0.4448
 5348SOL     OW23611   3.108   8.698   1.427  0.1612  0.1114  0.2197
 5348SOL    HW123612   3.012   8.671   1.426 -0.1250  1.1377 -0.3174
 5348SOL    HW223613   3.120   8.775   1.490  0.4007  0.8206 -0.6892
 5349SOL     OW23614   3.016   3.070   1.033 -0.2336  0.0308 -0.2530
 5349SOL    HW123615   2.931   3.123   1.037  0.6650  1.5026 -0.2128
 5349SOL    HW223616   3.091   3.130   1.006  0.6932 -1.3959 -0.9095
 5350SOL     OW23617   1.002   4.220   1.405  0.6042 -0.6844  0.5626
 5350SOL    HW123618   0.929   4.240   1.340 -0.8765 -3.5356  1.2422
 5350SOL    HW223619   0.962   4.198   1.494  2.4422  0.1716  1.6298
 5351SOL     OW23620   3.266   8.047   2.135 -0.1661  0.3509 -0.0291
 5351SOL    HW123621   3.348   8.031   2.190  0.4916  1.4603 -0.6595
 5351SOL    HW223622   3.251   8.145   2.127 -1.5577  0.1483  0.0661
 5353SOL     OW23623   8.018   0.917   0.497 -0.7449  0.1821  0.4438
 5353SOL    HW123624   8.022   0.817   0.508 -1.2611  0.2036  0.8199
 5353SOL    HW223625   7.988   0.939   0.404 -0.8192 -0.0101  0.4219
 5354SOL     OW23626   1.334   1.004   0.930 -0.3873  0.0307 -0.0342
 5354SOL    HW123627   1.265   1.066   0.893  0.2719  1.1796  0.6177
 5354SOL    HW223628   1.385   0.963   0.854 -0.5019  0.6687 -0.4655
 5355SOL     OW23629   2.857   2.640   2.308 -0.1903 -1.0111  0.2637
 5355SOL    HW123630   2.902   2.728   2.292  0.5786 -1.5817 -0.7925
 5355SOL    HW223631   2.763   2.645   2.273 -0.2390 -0.5169  0.4600
 5356SOL     OW23632   0.079   6.639   1.249 -0.1170 -0.1701 -0.3654
 5356SOL    HW123633   0.158   6.583   1.223 -0.2269 -1.1123  1.2218
 5356SOL    HW223634   0.110   6.726   1.286  0.0939  0.3996 -1.8640
 5357SOL     OW23635   1.593   4.188   0.351 -0.9811  0.2285  0.0389
 5357SOL    HW123636   1.530   4.113   0.374 -1.6713  1.1236  1.1229
 5357SOL    HW223637   1.590   4.257   0.423  2.3249 -0.3918  0.8476
 5360SOL     OW23638   5.290   9.274   3.343  0.5029  0.3596  0.2190
 5360SOL    HW123639   5.255   9.218   3.268  3.5613 -2.1896  0.5976
 5360SOL    HW223640   5.251   9.243   3.430 -0.3666  1.0592  0.0915
 5361SOL     OW23641   3.634   6.734   4.281 -0.0817 -0.5051  0.2055
 5361SOL    HW123642   3.536   6.748   4.264 -0.0286  1.2828  1.2560
 5361SOL    HW223643   3.678   6.704   4.196 -0.6584  3.5125 -1.6175
 5363SOL     OW23644   0.565   2.651   2.834  0.8517 -0.0320  0.3149
 5363SOL    HW123645   0.623   2.704   2.773  0.9121 -1.1163 -0.5939
 5363SOL    HW223646   0.487   2.706   2.863  1.2078  0.7249 -0.1487
 5364SOL     OW23647   3.583   8.016   3.081  0.3879 -0.8152  0.6782
 5364SOL    HW123648   3.497   7.967   3.069  0.6450 -0.9747 -0.6373
 5364SOL    HW223649   3.624   8.033   2.991  1.4539 -0.2563  1.2626
 5366SOL     OW23650   3.147   4.085   2.202  0.4295  0.2880  0.2239
 5366SOL    HW123651   3.226   4.070   2.143  0.1931 -1.1272  0.2484
 5366SOL    HW223652   3.112   3.996   2.234 -2.2751  0.7453 -1.2670
 5367SOL     OW23653   7.853   1.074   0.633 -0.2359 -0.2614 -0.7099
 5367SOL    HW123654   7.773   1.015   0.627 -0.0153 -0.4978 -1.3247
 5367SOL    HW223655   7.930   1.030   0.588  0.0033  0.3802 -0.9270
 5368SOL     OW23656   4.391   1.287   1.096 -0.4486 -0.1818 -0.0320
 5368SOL    HW123657   4.394   1.284   0.996 -0.5603 -1.9063 -0.0066
 5368SOL    HW223658   4.307   1.243   1.127 -1.5593  2.4597  0.7596
 5369SOL     OW23659   6.583   0.828   1.851  0.0659 -0.2335  0.3014
 5369SOL    HW123660   6.609   0.896   1.920 -0.1449  0.1316  0.0234
 5369SOL    HW223661   6.658   0.762   1.839  0.5010  0.2822  0.1603
 5370SOL     OW23662   8.154   9.830   0.124  0.4048  0.1029 -0.2690
 5370SOL    HW123663   8.217   9.901   0.092  0.4311  0.6096  0.8845
 5370SOL    HW223664   8.157   9.825   0.224 -2.3803  1.0822 -0.0782
 5371SOL     OW23665   1.798   8.998   2.851 -0.2540  0.2812  0.6145
 5371SOL    HW123666   1.819   9.084   2.806 -0.3794 -1.0910 -2.1942
 5371SOL    HW223667   1.717   9.009   2.909 -0.6468  1.8781 -0.2243
 5372SOL     OW23668   3.841   5.307   2.557 -0.6867 -0.2040 -0.4333
 5372SOL    HW123669   3.768   5.339   2.617  0.0195 -2.1428  1.5470
 5372SOL    HW223670   3.827   5.210   2.536  0.6078 -0.2676 -1.0617
 5373SOL     OW23671   3.516   0.806   3.413  0.2065 -0.0180  0.5973
 5373SOL    HW123672   3.441   0.819   3.348  1.8337  0.8183 -1.1571
 5373SOL    HW223673   3.536   0.708   3.421  0.9432 -0.0556 -1.3212
 5374SOL     OW23674   8.470   4.051   0.060 -0.3154  0.4388  0.1986
 5374SOL    HW123675   8.568   4.048   0.038 -0.3463 -0.3915  0.1610
 5374SOL    HW223676   8.459   4.060   0.159 -0.2042 -2.6853  0.5269
 5376SOL     OW23677   2.976   9.699   2.645  0.0381 -0.2112  0.0792
 5376SOL    HW123678   2.910   9.627   2.666 -0.4057  0.0096 -0.5286
 5376SOL    HW223679   2.954   9.739   2.556  1.8324 -1.1009 -0.7798
 5378SOL     OW23680   2.880   9.182   0.141  0.2695 -0.2569  0.4529
 5378SOL    HW123681   2.968   9.135   0.149  0.6805  0.3271 -0.5850
 5378SOL    HW223682   2.863   9.206   0.046 -0.5822  0.4645  0.7763
 5379SOL     OW23683   9.322   6.734   0.725  0.5005 -0.9039 -0.5508
 5379SOL    HW123684   9.323   6.637   0.704  1.2345 -0.9822 -0.1696
 5379SOL    HW223685   9.414   6.772   0.712  0.2377 -0.2825 -0.6186
 5381SOL     OW23686   4.927   9.379   4.313  0.2343  0.0301  0.1149
 5381SOL    HW123687   4.868   9.423   4.380 -0.3672 -0.9648  0.2508
 5381SOL    HW223688   4.930   9.435   4.230  0.2965  0.8314  0.6518
 5382SOL     OW23689   4.934   7.513   3.306 -0.1644  0.3302  0.1824
 5382SOL    HW123690   4.855   7.462   3.341 -0.8546  1.9407  1.0235
 5382SOL    HW223691   4.998   7.530   3.380  0.6349 -0.3377 -0.3511
 5383SOL     OW23692   5.684   8.471   2.416 -0.0960  0.1161 -0.4862
 5383SOL    HW123693   5.614   8.406   2.445 -0.5960  0.1244 -1.6551
 5383SOL    HW223694   5.645   8.536   2.352  1.0338 -0.0238 -1.3386
 5384SOL     OW23695   5.600   0.486   4.387 -0.6413  0.0746 -0.1700
 5384SOL    HW123696   5.529   0.427   4.424 -0.2721 -0.0790  0.3158
 5384SOL    HW223697   5.616   0.464   4.291  0.9888 -2.1105  0.5581
 5385SOL     OW23698   3.660   0.211   1.036 -0.9555  0.1327  0.0166
 5385SOL    HW123699   3.683   0.226   1.132 -0.8216 -1.5078  0.2518
 5385SOL    HW223700   3.565   0.179   1.029 -0.8931  0.0309 -0.3804
 5387SOL     OW23701   0.632   2.420   1.087  0.5559 -0.2282  0.0446
 5387SOL    HW123702   0.568   2.364   1.033  1.5102 -0.0727 -1.2458
 5387SOL    HW223703   0.689   2.474   1.027  0.7391  0.9632  1.2580
 5388SOL     OW23704   8.925   1.100   2.296 -0.4487  0.4387  0.2202
 5388SOL    HW123705   8.847   1.057   2.249  0.5532 -0.3183 -0.7784
 5388SOL    HW223706   8.927   1.070   2.391 -1.4716  0.5817  0.2892
 5389SOL     OW23707   2.494   2.337   1.048 -0.3239  0.2407  0.0276
 5389SOL    HW123708   2.583   2.304   1.016  0.5523  1.9411  0.6707
 5389SOL    HW223709   2.437   2.362   0.969 -0.1779 -0.6977 -0.3763
 5390SOL     OW23710   0.382   8.740   2.678 -0.1778 -0.2949  0.4242
 5390SOL    HW123711   0.373   8.806   2.753 -0.0073 -1.1413  1.2134
 5390SOL    HW223712   0.424   8.784   2.599  0.3510  0.4261  1.0978
 5391SOL     OW23713   1.125   0.431   3.935  0.1466  0.1649 -0.2235
 5391SOL    HW123714   1.205   0.398   3.984 -0.7279  0.7373  1.6056
 5391SOL    HW223715   1.150   0.515   3.885  0.8561 -0.0373 -0.2180
 5392SOL     OW23716   7.823   6.545   2.870 -0.5375 -0.4734  0.4413
 5392SOL    HW123717   7.741   6.521   2.818  0.5059 -1.1720 -0.8964
 5392SOL    HW223718   7.904   6.525   2.816  0.5161  0.6966  1.5588
 5393SOL     OW23719   2.126   3.741   0.450  0.5277 -0.2050 -0.2469
 5393SOL    HW123720   2.045   3.744   0.391  1.2956 -1.2974 -1.3966
 5393SOL    HW223721   2.183   3.821   0.433  0.6241 -0.3913 -0.8408
 5394SOL     OW23722   5.957   8.732   2.589 -0.2636 -0.1060 -0.0160
 5394SOL    HW123723   6.006   8.784   2.519 -1.3255  0.8051 -0.1151
 5394SOL    HW223724   5.862   8.720   2.560 -0.0849 -1.9646  0.1019
 5395SOL     OW23725   9.025   5.946   3.625  0.2448 -0.1900  0.0386
 5395SOL    HW123726   9.101   5.935   3.560 -0.0908  2.0557 -0.7904
 5395SOL    HW223727   8.946   5.984   3.577  0.1013  1.8420  1.7980
 5396SOL     OW23728   8.105   6.987   1.492  0.5400 -0.0714 -0.7602
 5396SOL    HW123729   8.154   6.935   1.562 -0.0828 -0.0425 -0.2982
 5396SOL    HW223730   8.105   6.935   1.406 -1.0437 -1.3592 -0.0019
 5397SOL     OW23731   3.654   6.197   2.339 -0.0273 -0.3954  0.3192
 5397SOL    HW123732   3.738   6.249   2.357 -0.9162  1.3596 -0.4160
 5397SOL    HW223733   3.670   6.133   2.265  0.3006  0.9368 -0.7903
 5398SOL     OW23734   3.279   1.142   0.796  0.0514  0.1758  0.1192
 5398SOL    HW123735   3.336   1.225   0.798  0.2930  0.0096  0.1537
 5398SOL    HW223736   3.185   1.167   0.774  0.3267  0.3478 -0.9172
 5400SOL     OW23737   7.082   9.620   3.570  0.1467 -0.0873  0.2077
 5400SOL    HW123738   7.087   9.614   3.470 -0.2193 -0.3635  0.2021
 5400SOL    HW223739   7.111   9.711   3.600  1.6685 -0.4837 -0.0432
 5401SOL     OW23740   0.590   3.380   2.578  0.0907 -0.5763 -0.3831
 5401SOL    HW123741   0.634   3.466   2.604  0.3544 -0.3274 -1.6163
 5401SOL    HW223742   0.659   3.309   2.567 -0.2417 -1.2409  1.7485
 5402SOL     OW23743   9.493   0.832   2.154  0.0121  0.6495  0.6361
 5402SOL    HW123744   9.421   0.867   2.215 -0.0433 -0.7132  1.3750
 5402SOL    HW223745   9.512   0.737   2.176  0.6160  0.3890 -0.9200
 5404SOL     OW23746   9.943   4.527   0.047  0.8499 -0.6815 -0.0066
 5404SOL    HW123747   9.912   4.475  -0.032 -1.2142  0.0862  0.2623
 5404SOL    HW223748   9.916   4.623   0.036  0.5539 -0.5730  1.6152
 5405SOL     OW23749   1.574   9.570   0.365 -0.3411  0.0194 -0.1195
 5405SOL    HW123750   1.544   9.541   0.274  0.2667  0.7875 -0.5688
 5405SOL    HW223751   1.629   9.497   0.407  0.2718  0.0809 -0.8025
 5407SOL     OW23752   2.638   2.533   4.042 -0.1752 -0.1706  0.5099
 5407SOL    HW123753   2.693   2.515   4.124 -0.1335 -2.4013  0.0321
 5407SOL    HW223754   2.572   2.459   4.030  0.1435 -0.1136 -1.7303
 5408SOL     OW23755   8.991   4.629   0.164 -0.3826  0.3204  0.3170
 5408SOL    HW123756   9.071   4.654   0.219  0.5708  2.2288 -1.8436
 5408SOL    HW223757   9.020   4.569   0.089 -1.4901 -1.4093  1.2470
 5409SOL     OW23758   3.250   0.001   4.214  0.0611 -0.1409  0.1947
 5409SOL    HW123759   3.213   0.092   4.194 -0.9347 -0.5717  0.0635
 5409SOL    HW223760   3.317   0.008   4.288 -0.6799  0.5783  0.8113
 5410SOL     OW23761   4.701   8.406   3.599 -0.0102 -0.3740 -0.4537
 5410SOL    HW123762   4.636   8.349   3.650 -0.5183 -0.1931 -0.8975
 5410SOL    HW223763   4.734   8.355   3.520 -1.1473  0.2576 -1.3596
 5411SOL     OW23764   9.645   5.524   1.427 -0.2497 -0.1776 -0.0855
 5411SOL    HW123765   9.720   5.469   1.463 -0.3807 -0.9627 -0.9619
 5411SOL    HW223766   9.591   5.468   1.364 -0.3962  0.9585 -0.9825
 5412SOL     OW23767   6.415   0.967   3.605  0.5337  0.3772 -0.3900
 5412SOL    HW123768   6.382   0.949   3.512 -0.1596 -0.5715  0.0413
 5412SOL    HW223769   6.423   1.066   3.618 -0.0691  0.5450 -1.2246
 5413SOL     OW23770   2.774   2.299   4.437 -0.1867 -0.5715  0.4412
 5413SOL    HW123771   2.873   2.291   4.445 -0.2303 -0.8285  0.7372
 5413SOL    HW223772   2.751   2.357   4.359  0.2124  0.0547  0.7844
 5414SOL     OW23773   8.002   6.276   3.001 -0.3633 -0.6289 -0.5741
 5414SOL    HW123774   7.958   6.212   2.937 -2.2758 -1.1716  1.2199
 5414SOL    HW223775   7.932   6.330   3.047  1.1894  2.3441 -1.5509
 5416SOL     OW23776   2.933   4.483   0.766  0.2232  0.0141 -0.4135
 5416SOL    HW123777   2.998   4.543   0.813  2.1233 -1.2554 -1.3629
 5416SOL    HW223778   2.858   4.538   0.729 -0.1054  1.3163  2.0397
 5418SOL     OW23779   2.030   7.546   1.655 -0.0017  0.2670 -0.7370
 5418SOL    HW123780   2.117   7.561   1.702 -1.3960 -1.2233  2.4735
 5418SOL    HW223781   1.975   7.630   1.657 -1.6372 -0.7786  3.9089
 5420SOL     OW23782   0.212   2.696   1.947  0.0179 -0.3119 -0.4910
 5420SOL    HW123783   0.297   2.738   1.917  0.0813  1.4381  2.0484
 5420SOL    HW223784   0.219   2.596   1.939  2.4208 -0.1939  0.0615
 5421SOL     OW23785   4.228   8.046   0.059 -0.1584  0.4151 -0.5613
 5421SOL    HW123786   4.186   8.009   0.142  0.3098 -1.8642 -1.3320
 5421SOL    HW223787   4.323   8.071   0.079  0.3152 -1.2527 -0.7225
 5422SOL     OW23788   2.220   5.764   1.486 -0.3972 -0.3395 -0.4363
 5422SOL    HW123789   2.166   5.696   1.436  0.2984 -1.7773  0.7261
 5422SOL    HW223790   2.165   5.800   1.562 -1.3396  1.6112 -1.9926
 5424SOL     OW23791   9.604   7.088   3.141  0.3259 -0.3889 -0.1723
 5424SOL    HW123792   9.545   7.027   3.088 -1.1505  1.7238 -1.0578
 5424SOL    HW223793   9.587   7.182   3.113  2.1583  0.4906  1.5460
 5426SOL     OW23794   7.742   7.094   3.749 -0.4084 -0.0812  0.0210
 5426SOL    HW123795   7.765   7.050   3.836  2.1803  0.4815 -0.3450
 5426SOL    HW223796   7.723   7.191   3.765  1.3882  0.3190 -0.2052
 5427SOL     OW23797   3.759   1.247   0.265  0.2382  0.5057 -0.2036
 5427SOL    HW123798   3.831   1.311   0.292  0.5831 -0.1934  0.5366
 5427SOL    HW223799   3.678   1.260   0.323  1.4900 -1.9812  2.2171
 5428SOL     OW23800   9.873   5.844   1.628  0.2479  0.1182  0.0040
 5428SOL    HW123801   9.820   5.927   1.646  0.2787  0.3675 -0.9892
 5428SOL    HW223802   9.895   5.840   1.530  1.8840 -0.0766  0.3682
 5429SOL     OW23803   3.200   3.282   0.919  0.0850  0.1216  0.5023
 5429SOL    HW123804   3.111   3.317   0.890  0.0699  0.4565  0.9519
 5429SOL    HW223805   3.230   3.329   1.002  0.3223 -0.5340  0.7981
 5430SOL     OW23806   0.207   1.530   0.254  0.7045 -0.1573 -0.4406
 5430SOL    HW123807   0.224   1.479   0.338  1.8983 -0.7090 -1.0125
 5430SOL    HW223808   0.290   1.532   0.199  0.2178  1.0747 -1.1429
 5431SOL     OW23809   9.124   6.675   0.483 -0.5838 -0.7330 -0.6536
 5431SOL    HW123810   9.035   6.704   0.448  0.3413  0.6348 -1.9374
 5431SOL    HW223811   9.121   6.673   0.583 -1.4786  1.2144 -0.6172
 5432SOL     OW23812   4.859   1.840   0.866 -0.4053  0.4401 -0.3997
 5432SOL    HW123813   4.844   1.895   0.948 -0.5680 -1.9234  1.1989
 5432SOL    HW223814   4.772   1.806   0.832 -0.0222 -1.7307  0.7096
 5433SOL     OW23815   6.437   8.789   1.982 -0.0212  0.0371 -0.5499
 5433SOL    HW123816   6.400   8.843   1.907 -0.0623  0.3930 -0.2736
 5433SOL    HW223817   6.524   8.748   1.955  1.6318  2.8480  0.3273
 5434SOL     OW23818   5.372   1.240   3.114  0.4369 -0.0799  0.9303
 5434SOL    HW123819   5.317   1.246   3.197 -0.3879 -0.3137  0.4048
 5434SOL    HW223820   5.458   1.289   3.128  0.1715  0.1457  1.8156
 5435SOL     OW23821   9.027   7.547   2.108  0.3051 -0.0083 -0.0077
 5435SOL    HW123822   8.938   7.516   2.074  0.7672 -0.0216 -1.2335
 5435SOL    HW223823   9.021   7.644   2.133 -0.1995 -0.1572  0.4664
 5436SOL     OW23824   8.737   4.676   2.488 -0.2824 -0.8185  0.3547
 5436SOL    HW123825   8.736   4.765   2.533 -1.5942  0.5349 -2.2654
 5436SOL    HW223826   8.797   4.614   2.539 -0.3827  1.1285  2.9633
 5437SOL     OW23827   8.102   7.312   3.025 -0.3336  0.0874 -0.4203
 5437SOL    HW123828   8.032   7.383   3.015  0.2463  0.6003 -0.8916
 5437SOL    HW223829   8.058   7.226   3.049 -0.9558  0.8457  1.2988
 5440SOL     OW23830   2.034   7.782   0.586 -0.1675 -0.2931  0.0378
 5440SOL    HW123831   1.947   7.743   0.556 -0.1978  0.8747 -1.4252
 5440SOL    HW223832   2.063   7.852   0.522  1.1288  0.3602  1.3102
 5441SOL     OW23833   7.524   1.110   2.762  0.1387  0.5552  0.0547
 5441SOL    HW123834   7.454   1.041   2.777  0.0942  0.8493  1.2881
 5441SOL    HW223835   7.602   1.093   2.822 -0.2372  2.0477  1.0123
 5442SOL     OW23836   6.912   8.108   1.459 -0.0330 -0.8609  0.4017
 5442SOL    HW123837   6.846   8.158   1.515 -0.1215  0.9422 -1.2132
 5442SOL    HW223838   6.966   8.174   1.406 -0.8054 -2.4985 -2.5400
 5443SOL     OW23839   8.795   2.236   1.627  0.0843  0.0357  0.1985
 5443SOL    HW123840   8.735   2.288   1.566  1.0444  0.3785 -0.4635
 5443SOL    HW223841   8.854   2.176   1.573  0.0425 -0.6255  0.8711
 5444SOL     OW23842   8.328   7.244   3.646 -0.6896 -0.4476  0.4212
 5444SOL    HW123843   8.373   7.234   3.734 -0.5856  0.2797  0.4508
 5444SOL    HW223844   8.371   7.319   3.594 -0.2886 -1.3264 -0.5318
 5445SOL     OW23845   6.475   0.523   3.035 -0.1307  0.5872 -0.2612
 5445SOL    HW123846   6.574   0.517   3.033 -0.1694 -0.8348  0.7670
 5445SOL    HW223847   6.446   0.616   3.012  1.4317  1.0739 -0.3255
 5446SOL     OW23848   7.345   2.333   3.429 -0.1102 -0.5595 -0.3092
 5446SOL    HW123849   7.322   2.321   3.332 -1.3431 -0.9341  0.0119
 5446SOL    HW223850   7.262   2.322   3.484  0.6101 -0.5112  0.8033
 5447SOL     OW23851   3.347   7.004   4.024  0.6462 -0.0583 -0.3644
 5447SOL    HW123852   3.376   7.007   3.928  1.7103 -1.2094 -0.0868
 5447SOL    HW223853   3.276   7.073   4.039  1.1482  0.7899 -1.7508
 5448SOL     OW23854   2.095   2.706   3.260 -0.4661 -0.4594  0.0106
 5448SOL    HW123855   2.141   2.786   3.300  0.5914 -0.3740 -1.3328
 5448SOL    HW223856   1.998   2.710   3.282 -0.4951  1.4220 -0.3697
 5449SOL     OW23857   6.055   1.639   2.317  0.1070 -0.2853 -0.0672
 5449SOL    HW123858   6.098   1.668   2.403  1.7501 -0.5302 -0.7806
 5449SOL    HW223859   5.983   1.703   2.293  1.7857  1.6347 -0.1538
 5452SOL     OW23860   0.236   7.483   2.279  0.5375  0.6671 -0.0466
 5452SOL    HW123861   0.150   7.528   2.303 -0.8142 -1.6838 -0.3357
 5452SOL    HW223862   0.266   7.426   2.355  0.1744 -0.9422 -1.0722
 5453SOL     OW23863   0.550   8.417   0.007 -0.1913  0.4226 -0.0726
 5453SOL    HW123864   0.471   8.357   0.020 -0.1978  0.2008 -1.1325
 5453SOL    HW223865   0.532   8.505   0.051 -2.0717  1.2604 -2.4598
 5454SOL     OW23866   6.564   9.598   0.984  0.3272  0.0309 -0.6442
 5454SOL    HW123867   6.650   9.604   0.934  1.2219  0.3805  0.9180
 5454SOL    HW223868   6.582   9.584   1.081 -1.3968 -1.9064 -0.5614
 5455SOL     OW23869   4.009   7.032   2.179 -0.2333 -0.2985  0.1231
 5455SOL    HW123870   4.092   6.978   2.167 -0.7296 -1.3650  1.2511
 5455SOL    HW223871   4.032   7.129   2.186  0.8791 -0.5513  0.0775
 5457SOL     OW23872   5.044   1.193   0.920  0.3648  0.0257  0.0678
 5457SOL    HW123873   4.947   1.209   0.902  0.7799 -0.0357 -2.4374
 5457SOL    HW223874   5.066   1.219   1.014 -2.0551  0.1032  0.6287
 5458SOL     OW23875   7.976   1.346   1.645 -0.5100 -0.0509  0.1710
 5458SOL    HW123876   7.901   1.385   1.591 -0.5816  0.2342  0.4763
 5458SOL    HW223877   7.959   1.363   1.742 -0.0395  0.0361  0.2379
 5459SOL     OW23878   0.844   7.412   1.375  0.0760 -0.0524 -0.1961
 5459SOL    HW123879   0.904   7.349   1.326 -0.3780 -0.0361 -0.7734
 5459SOL    HW223880   0.754   7.412   1.333 -0.0643  0.6241  0.0966
 5460SOL     OW23881   2.916   0.365   2.021 -0.2576  0.2418  0.3007
 5460SOL    HW123882   2.904   0.373   1.922  2.4943 -0.8715 -0.1734
 5460SOL    HW223883   2.994   0.422   2.049  0.7375 -1.6239  1.3886
 5462SOL     OW23884   3.093   6.184   1.052  0.0282 -0.2378  0.4537
 5462SOL    HW123885   3.115   6.160   1.146  1.7898 -0.4802 -0.0013
 5462SOL    HW223886   3.057   6.277   1.049  2.7791  0.9127  1.0569
 5463SOL     OW23887   9.299   7.103   2.972 -0.5425 -0.2407 -0.0004
 5463SOL    HW123888   9.246   7.169   2.919  2.2212  1.7962 -0.3310
 5463SOL    HW223889   9.270   7.106   3.068 -2.3767 -0.6416 -0.5145
 5465SOL     OW23890   8.004   7.025   1.970 -0.2455 -0.1351  0.1223
 5465SOL    HW123891   7.977   7.079   2.050 -2.4915  2.6793 -2.4362
 5465SOL    HW223892   8.104   7.017   1.968 -0.0164  1.9444  1.8211
 5466SOL     OW23893   9.257   0.234   2.307  0.1797  0.1303  0.3466
 5466SOL    HW123894   9.325   0.222   2.235  0.0081  0.4604  0.1294
 5466SOL    HW223895   9.259   0.328   2.340 -0.7054  0.3443 -0.1971
 5467SOL     OW23896   2.993   5.718   2.898  0.3217  0.2531 -0.7207
 5467SOL    HW123897   2.957   5.626   2.917 -2.2517  1.0478 -1.5659
 5467SOL    HW223898   3.013   5.764   2.985 -0.4240 -0.3224 -0.2391
 5468SOL     OW23899   9.821   7.350   2.979 -0.2137  0.2196 -0.3041
 5468SOL    HW123900   9.834   7.251   2.971  0.1735  0.2005  0.4547
 5468SOL    HW223901   9.903   7.391   3.019 -0.8064  0.6974  0.4408
 5469SOL     OW23902   1.895   6.741   2.961  0.0513  0.0738 -0.0604
 5469SOL    HW123903   1.875   6.830   3.001 -1.2532 -0.2543  0.0516
 5469SOL    HW223904   1.906   6.673   3.033  1.7798  0.2792 -0.1175
 5470SOL     OW23905   1.790   1.424   1.450  0.4127  0.3726  0.4194
 5470SOL    HW123906   1.740   1.510   1.437  1.1089  1.0235  1.8532
 5470SOL    HW223907   1.727   1.347   1.444 -0.7966  1.1819  2.1742
 5471SOL     OW23908   9.974   5.541   1.058 -0.2406  0.0953  0.3385
 5471SOL    HW123909  10.025   5.513   1.139  0.2748 -2.2661 -0.7541
 5471SOL    HW223910   9.958   5.639   1.061  1.6628  0.3824  2.2287
 5472SOL     OW23911   7.694   9.703   2.604 -0.0194  0.2856  0.1379
 5472SOL    HW123912   7.712   9.618   2.655 -0.0724  0.5938  0.6694
 5472SOL    HW223913   7.776   9.728   2.552 -0.4107 -0.7651 -1.0034
 5473SOL     OW23914   7.927   2.720   1.682 -0.5696 -0.1012  0.5151
 5473SOL    HW123915   7.979   2.765   1.610  0.6646 -0.6875  1.0270
 5473SOL    HW223916   7.830   2.722   1.659 -0.3043  0.7961 -0.5630
 5474SOL     OW23917   1.378   1.187   2.017  0.6482  0.6480 -0.4174
 5474SOL    HW123918   1.287   1.228   2.021  0.6841  0.7228 -0.3529
 5474SOL    HW223919   1.447   1.258   2.035  0.7213  0.6034 -0.5212
 5475SOL     OW23920   4.931   7.571   2.473 -0.2491  0.1061 -0.4944
 5475SOL    HW123921   4.934   7.541   2.377 -0.7274  1.3150 -0.9039
 5475SOL    HW223922   4.848   7.624   2.488 -1.8882 -2.8643  1.4646
 5477SOL     OW23923   6.527   8.857   3.366  0.4101  0.0805  0.5625
 5477SOL    HW123924   6.626   8.847   3.353  0.4221  0.6186  0.2204
 5477SOL    HW223925   6.478   8.797   3.303  0.5046  0.5976 -0.0025
 5478SOL     OW23926   3.932   9.103   1.660 -0.1606 -0.5023  0.0048
 5478SOL    HW123927   3.857   9.127   1.722 -0.5754 -2.1931  0.1707
 5478SOL    HW223928   4.014   9.083   1.713  0.2554  0.7391 -0.1480
 5480SOL     OW23929   8.805   6.491   0.071 -0.2892  0.1512  0.6663
 5480SOL    HW123930   8.782   6.438   0.153  0.1072 -0.3267  0.4695
 5480SOL    HW223931   8.882   6.551   0.090 -1.7147  1.8259  1.3560
 5481SOL     OW23932   3.576   0.254   3.781  0.5275  0.6862  0.0966
 5481SOL    HW123933   3.661   0.203   3.798  0.9685  1.7256  1.0372
 5481SOL    HW223934   3.511   0.238   3.855 -0.7762 -1.4630 -1.4598
 5482SOL     OW23935   9.839   3.335   1.734 -0.0559  0.0413 -0.1068
 5482SOL    HW123936   9.870   3.244   1.706  1.4003  0.7328 -0.8315
 5482SOL    HW223937   9.890   3.363   1.815  0.0027  0.4914 -0.2967
 5483SOL     OW23938   0.749   9.144   1.945 -0.3366 -0.3015  0.2795
 5483SOL    HW123939   0.769   9.195   1.862 -0.0149  0.3598  0.7615
 5483SOL    HW223940   0.834   9.117   1.990 -0.5082 -0.6398  0.4064
 5484SOL     OW23941   0.811   4.775   3.994 -0.4759 -0.6934 -0.1065
 5484SOL    HW123942   0.762   4.793   4.079  0.4598 -0.6890  0.4397
 5484SOL    HW223943   0.898   4.824   3.995  0.4200 -2.2570 -0.2218
 5485SOL     OW23944   7.436   0.270   3.321 -0.0160 -0.0710 -0.0105
 5485SOL    HW123945   7.504   0.202   3.292 -1.1298 -0.9571 -0.5876
 5485SOL    HW223946   7.470   0.361   3.300  1.2898 -0.4676  0.3197
 5487SOL     OW23947   9.804   5.188   4.443  0.2397  0.5844 -0.0042
 5487SOL    HW123948   9.835   5.100   4.407  0.5864  1.0437 -0.8327
 5487SOL    HW223949   9.822   5.260   4.376  0.1522  1.3223  0.7577
 5488SOL     OW23950   5.082   8.268   2.122  0.1026  0.0180 -0.0985
 5488SOL    HW123951   5.074   8.183   2.070  0.3843 -0.0607 -0.0134
 5488SOL    HW223952   5.094   8.345   2.059 -0.9723  0.1018 -0.2185
 5489SOL     OW23953   2.234   9.422   1.203  0.4180 -0.2246  0.3336
 5489SOL    HW123954   2.311   9.402   1.263  0.5033 -2.4303 -0.4622
 5489SOL    HW223955   2.256   9.394   1.109 -0.7281  0.6879 -0.2312
 5491SOL     OW23956   8.196   9.678   3.429  0.4473 -0.2997 -0.0709
 5491SOL    HW123957   8.181   9.619   3.508  0.3832  0.0742  0.1954
 5491SOL    HW223958   8.262   9.749   3.452  0.7757 -0.4651 -0.4957
 5493SOL     OW23959   9.704   2.673   3.364  0.1442 -0.1995 -0.4849
 5493SOL    HW123960   9.686   2.579   3.335 -0.6272 -0.4289  0.7011
 5493SOL    HW223961   9.617   2.723   3.369  0.5534  0.5772 -1.1161
 5494SOL     OW23962   7.561   5.283   4.053  0.7255 -0.4494 -0.4284
 5494SOL    HW123963   7.652   5.285   4.094 -0.7168  0.4026  2.8724
 5494SOL    HW223964   7.537   5.188   4.031  1.9960 -0.7874 -0.3990
 5495SOL     OW23965   2.413   2.976   3.923 -0.1009 -0.6116 -0.2986
 5495SOL    HW123966   2.474   3.009   3.996  1.2950 -0.9629 -1.2933
 5495SOL    HW223967   2.381   2.884   3.946 -0.7619 -0.1913  0.5184
 5497SOL     OW23968   9.975   0.352   2.807 -0.0406  0.0994 -1.0889
 5497SOL    HW123969   9.920   0.435   2.820  0.3804  0.2406 -0.1076
 5497SOL    HW223970   9.989   0.336   2.710  0.6350  1.6977 -1.2742
 5498SOL     OW23971   4.085   9.614   1.342 -0.0242  0.0195  0.7684
 5498SOL    HW123972   3.999   9.634   1.389 -2.7314 -0.9876 -3.4347
 5498SOL    HW223973   4.082   9.520   1.307  2.1400  0.4733 -0.7338
 5499SOL     OW23974   4.259   5.186   1.358  0.1736 -0.2458  0.6201
 5499SOL    HW123975   4.331   5.253   1.381  1.4820 -1.0935 -0.8631
 5499SOL    HW223976   4.170   5.223   1.383  1.0890  1.0595  2.0209
 5500SOL     OW23977   1.544   4.373   2.454  0.4613  0.4077 -0.3525
 5500SOL    HW123978   1.577   4.279   2.457  0.7136  0.4882 -0.5778
 5500SOL    HW223979   1.572   4.416   2.368  0.1042  0.6001 -0.3752
 5501SOL     OW23980   2.765   4.593   3.302  0.0808 -0.1435  0.5988
 5501SOL    HW123981   2.753   4.528   3.378 -0.5349  1.4223  1.8716
 5501SOL    HW223982   2.711   4.563   3.223 -1.2063 -0.5171  1.6027
 5502SOL     OW23983   4.721   1.357   0.803 -0.5073  0.1877  0.2457
 5502SOL    HW123984   4.813   1.364   0.764 -0.4221  1.7763  0.6696
 5502SOL    HW223985   4.726   1.315   0.893 -0.3071 -0.5607 -0.1134
 5505SOL     OW23986   4.116   3.480   4.325  0.3779  0.3311  0.2394
 5505SOL    HW123987   4.145   3.388   4.352  0.8632  0.2110 -0.6672
 5505SOL    HW223988   4.156   3.547   4.387  2.6598  0.1756 -0.9907
 5507SOL     OW23989   2.527   7.887   0.252 -0.0196 -0.3910 -0.0326
 5507SOL    HW123990   2.496   7.874   0.346 -1.1077 -0.2062 -0.3509
 5507SOL    HW223991   2.546   7.984   0.237 -0.0926 -0.3829 -0.0715
 5509SOL     OW23992   6.960   0.067   3.482 -0.2237  0.0775 -0.1984
 5509SOL    HW123993   6.946   0.107   3.573  0.8843 -0.6597  0.3137
 5509SOL    HW223994   6.987   0.139   3.418  1.2763  0.2510  0.5982
 5511SOL     OW23995   8.862   0.867   3.183 -0.0201 -0.7652  0.0592
 5511SOL    HW123996   8.840   0.821   3.097  0.4320 -1.8248  0.5055
 5511SOL    HW223997   8.791   0.849   3.250  0.5451 -1.4724  0.4767
 5512SOL     OW23998   2.657   2.411   0.097  0.3024  0.4029 -0.2010
 5512SOL    HW123999   2.596   2.333   0.080  0.7602 -0.0205  0.0871
 5512SOL    HW224000   2.673   2.460   0.011  0.2122  0.0363 -0.4279
 5514SOL     OW24001   7.664   0.718   3.845  0.7877  0.2333 -0.4889
 5514SOL    HW124002   7.644   0.774   3.764  0.7623 -0.6954 -1.1374
 5514SOL    HW224003   7.578   0.698   3.893  0.9608  2.0747  0.6610
 5515SOL     OW24004   4.579   3.445   4.327 -0.1385 -0.2790 -0.0432
 5515SOL    HW124005   4.536   3.534   4.312  2.3014  1.1608  1.1899
 5515SOL    HW224006   4.634   3.421   4.248 -1.2742 -0.9922 -0.6256
 5516SOL     OW24007   7.638   6.757   2.687  0.2043  0.3628  0.2150
 5516SOL    HW124008   7.576   6.809   2.628  1.0471  0.3701 -0.6785
 5516SOL    HW224009   7.725   6.743   2.640  0.7718  0.0645  1.3251
 5517SOL     OW24010   9.001   2.621   1.104 -0.5728 -0.1029  0.1641
 5517SOL    HW124011   8.957   2.539   1.067  1.4678 -1.4158  0.5941
 5517SOL    HW224012   9.100   2.612   1.095 -0.3122  2.0335  0.8358
 5518SOL     OW24013   3.057   8.364   4.218  0.0056  0.0257  0.2688
 5518SOL    HW124014   3.062   8.268   4.247 -0.2172 -0.5162 -1.3933
 5518SOL    HW224015   3.005   8.369   4.132  0.4441  1.5822  0.0899
 5519SOL     OW24016   1.324   1.597   2.389 -0.7123  0.2573  0.2587
 5519SOL    HW124017   1.373   1.612   2.303  0.5487  1.5560  1.1883
 5519SOL    HW224018   1.347   1.670   2.453 -1.4000 -0.8845  1.8170
 5520SOL     OW24019   9.241   1.498   3.896 -0.2842 -0.2741 -0.2809
 5520SOL    HW124020   9.285   1.414   3.864  2.1606  0.3288  1.3538
 5520SOL    HW224021   9.185   1.478   3.976  1.2567 -0.1797  0.8439
 5521SOL     OW24022   4.264   1.936   4.342 -0.5650  0.0366  0.2850
 5521SOL    HW124023   4.358   1.957   4.370 -0.8083  0.0340  1.0861
 5521SOL    HW224024   4.267   1.885   4.256  0.2380 -1.3558  1.1235
 5522SOL     OW24025   9.576   4.181   1.244  0.0114  0.1299 -0.4104
 5522SOL    HW124026   9.588   4.122   1.165 -1.2890  1.6910 -1.8193
 5522SOL    HW224027   9.666   4.205   1.281  0.6382 -0.6732 -1.3734
 5523SOL     OW24028   6.273   7.841   2.986  0.7278  0.1093  0.0089
 5523SOL    HW124029   6.252   7.850   2.889 -3.0692  3.2439  0.9788
 5523SOL    HW224030   6.280   7.744   3.010 -3.1961 -0.9042 -2.5089
 5526SOL     OW24031   6.610   7.956   3.585 -0.0344 -0.0871  0.4770
 5526SOL    HW124032   6.591   7.931   3.680  0.0725  1.1580  0.8388
 5526SOL    HW224033   6.555   7.899   3.524  0.7051 -1.6443  1.2407
 5527SOL     OW24034   1.613   0.109   1.889  0.0948  0.3284 -0.5429
 5527SOL    HW124035   1.697   0.076   1.931  0.5118 -0.2304 -1.7698
 5527SOL    HW224036   1.636   0.173   1.815 -0.4257 -1.4544 -2.3013
 5528SOL     OW24037   2.579   7.434   0.322 -0.2728  0.7523 -0.5557
 5528SOL    HW124038   2.624   7.372   0.257  0.9463  1.4465 -0.3924
 5528SOL    HW224039   2.606   7.410   0.415 -0.1595  1.2312 -0.4626
 5529SOL     OW24040   9.007   6.365   4.325  0.3552 -0.7585  0.0725
 5529SOL    HW124041   8.955   6.285   4.295 -1.0115  0.8468 -1.9804
 5529SOL    HW224042   8.949   6.426   4.377  0.5474  0.3509 -0.9851
 5531SOL     OW24043   9.483   4.402   2.594  0.4161 -0.2556  0.2600
 5531SOL    HW124044   9.544   4.324   2.605 -0.2910 -0.8019  0.2948
 5531SOL    HW224045   9.405   4.393   2.655 -0.9425 -0.7650 -1.5236
 5532SOL     OW24046   0.255   4.143   3.225 -0.0641  0.4923 -0.3412
 5532SOL    HW124047   0.226   4.231   3.188  0.0368  0.9119  0.5698
 5532SOL    HW224048   0.323   4.102   3.164  0.4550  1.4008 -0.3735
 5533SOL     OW24049   1.664   3.888   3.023  0.0875  0.3424 -0.0086
 5533SOL    HW124050   1.570   3.877   2.988  0.3601  0.4184 -0.7827
 5533SOL    HW224051   1.701   3.976   2.991  0.3377  0.4202  0.4937
 5534SOL     OW24052   3.707   7.590   4.003 -0.0116 -0.0096  0.8883
 5534SOL    HW124053   3.657   7.663   4.050  1.0788 -0.0228  2.1053
 5534SOL    HW224054   3.715   7.612   3.906 -2.6829 -0.1888  0.5927
 5535SOL     OW24055   1.613   8.695   2.798 -0.1113 -0.5952  0.1393
 5535SOL    HW124056   1.611   8.746   2.884 -1.9696 -1.4543  0.6405
 5535SOL    HW224057   1.672   8.615   2.809  0.8636  0.1174  0.1271
 5536SOL     OW24058   0.054   2.598   2.435 -0.1251 -0.1746 -0.1477
 5536SOL    HW124059   0.109   2.650   2.369  0.0803 -0.1043  0.0801
 5536SOL    HW224060   0.002   2.528   2.386  0.6893 -0.6911 -0.2978
 5537SOL     OW24061   9.383   2.358   1.292  0.6768 -0.7557  0.2861
 5537SOL    HW124062   9.393   2.415   1.373  1.9104 -1.7035  0.8076
 5537SOL    HW224063   9.292   2.317   1.292  0.7161 -0.8526  1.2540
 5538SOL     OW24064   5.990   8.080   1.412  0.5165  0.1125 -0.3447
 5538SOL    HW124065   5.901   8.049   1.377  0.4501  0.6259 -0.6389
 5538SOL    HW224066   5.985   8.178   1.434  0.1839 -0.4749  2.3252
 5539SOL     OW24067   3.755   0.881   3.897 -0.4132  0.8130 -0.4326
 5539SOL    HW124068   3.795   0.925   3.977 -0.3454  0.7294 -0.4200
 5539SOL    HW224069   3.826   0.829   3.848 -0.3133  1.4118 -0.9237
 5540SOL     OW24070   4.837   4.055   0.770  0.0683  0.3216  0.4028
 5540SOL    HW124071   4.889   4.120   0.826  0.9805  0.3853 -0.5004
 5540SOL    HW224072   4.859   4.070   0.674  0.2945 -1.3361  0.1890
 5542SOL     OW24073   7.015   9.452   3.804  0.0638  0.2970 -0.3995
 5542SOL    HW124074   7.087   9.510   3.841 -0.3463  1.1403 -0.9056
 5542SOL    HW224075   6.982   9.490   3.718  0.4552 -1.2287 -1.2256
 5543SOL     OW24076   7.939   1.580   2.964 -0.6281  0.0495 -0.4673
 5543SOL    HW124077   8.012   1.610   2.903 -0.3695 -1.0241 -0.7077
 5543SOL    HW224078   7.859   1.554   2.909 -0.9717  0.6192 -0.2440
 5544SOL     OW24079   3.648   8.359   2.066  0.1385 -0.0051 -0.3224
 5544SOL    HW124080   3.735   8.310   2.074  0.1321  0.1513  0.7363
 5544SOL    HW224081   3.580   8.318   2.127 -0.0380  0.9230  0.1300
 5545SOL     OW24082   6.769   6.543   3.634  0.1929 -0.0960  0.2697
 5545SOL    HW124083   6.689   6.598   3.613  0.2747 -0.4026 -0.8957
 5545SOL    HW224084   6.748   6.480   3.709 -0.4079  0.3484  0.4789
 5546SOL     OW24085   5.658   6.918   2.446  0.1547 -0.3583  1.0286
 5546SOL    HW124086   5.689   6.881   2.358 -1.8329 -0.3897  0.3087
 5546SOL    HW224087   5.705   6.870   2.520  0.3914 -1.7433  0.0175
 5548SOL     OW24088   0.742   3.052   0.430 -0.1268 -0.1668 -0.2617
 5548SOL    HW124089   0.773   3.012   0.516  1.0860  0.7376 -0.2591
 5548SOL    HW224090   0.694   3.138   0.448 -2.0080 -1.1787 -0.3258
 5549SOL     OW24091   1.475   3.496   4.057 -0.3007  0.3389 -0.6089
 5549SOL    HW124092   1.545   3.549   4.105 -0.3229 -0.3016  0.1459
 5549SOL    HW224093   1.503   3.400   4.053 -2.2495 -0.3800  1.8723
 5550SOL     OW24094   1.755   0.026   0.573 -0.5756 -0.0732 -0.4604
 5550SOL    HW124095   1.731  -0.039   0.502 -0.2565 -0.1857 -0.4661
 5550SOL    HW224096   1.677   0.040   0.634 -0.6293 -0.4877 -0.4357
 5551SOL     OW24097   3.705   2.857   3.796 -0.1447  0.0766 -0.2170
 5551SOL    HW124098   3.761   2.919   3.740 -0.2980  0.7118  0.3254
 5551SOL    HW224099   3.763   2.807   3.860  0.4041 -2.6487 -2.7331
 5552SOL     OW24100   3.389   0.183   1.031 -0.2717  0.3814  0.8898
 5552SOL    HW124101   3.350   0.258   0.978 -1.1480  0.1249  1.1643
 5552SOL    HW224102   3.354   0.187   1.125  0.6080  0.3330  1.2289
 5553SOL     OW24103   9.006   8.714   0.116 -0.3914 -0.0772  0.0455
 5553SOL    HW124104   8.969   8.625   0.144 -0.3812 -0.7625 -1.9832
 5553SOL    HW224105   8.944   8.787   0.145 -1.8487 -0.9776 -0.7520
 5554SOL     OW24106   7.902   5.312   0.271  0.3023  0.3494 -0.4222
 5554SOL    HW124107   7.853   5.355   0.346  0.6222  2.3268 -1.3116
 5554SOL    HW224108   7.875   5.354   0.184  2.5255  0.5152 -1.0639
 5555SOL     OW24109   4.490   1.995   2.386  0.4286 -0.0253 -0.0105
 5555SOL    HW124110   4.413   2.029   2.332  0.7967 -0.6556 -0.9583
 5555SOL    HW224111   4.469   2.004   2.483 -1.3456 -1.2708 -0.2448
 5556SOL     OW24112   7.490   2.819   1.031 -0.4491 -0.8122 -0.5950
 5556SOL    HW124113   7.477   2.913   1.001  0.1590 -0.5818 -0.1365
 5556SOL    HW224114   7.416   2.792   1.092  1.2173  0.5322  2.1205
 5557SOL     OW24115   2.471   6.768   4.360  0.0796  0.0675 -0.0585
 5557SOL    HW124116   2.376   6.762   4.394  0.6754  0.5618  1.7742
 5557SOL    HW224117   2.532   6.728   4.428  1.3801  1.5524 -0.3436
 5558SOL     OW24118   8.014   9.195   0.049 -0.2852 -0.2379 -0.3498
 5558SOL    HW124119   8.078   9.222   0.120  1.4228  0.7769 -2.2321
 5558SOL    HW224120   7.925   9.237   0.067  0.2825  0.4798  0.8618
 5559SOL     OW24121   4.411   6.738   1.679 -0.0202  0.6721 -0.3344
 5559SOL    HW124122   4.429   6.836   1.682 -0.2887  0.8102 -2.3246
 5559SOL    HW224123   4.498   6.688   1.674  0.1603  0.7304  1.8773
 5560SOL     OW24124   9.887   8.989   2.398  0.5195 -0.0944 -0.3874
 5560SOL    HW124125   9.846   8.900   2.411  1.7759 -0.7270 -0.6552
 5560SOL    HW224126   9.849   9.054   2.464 -0.7950 -0.6791 -0.5530
 5563SOL     OW24127   1.762   0.180   2.541 -0.0017 -0.0135  0.0825
 5563SOL    HW124128   1.790   0.250   2.607  2.1522  1.3692 -2.2075
 5563SOL    HW224129   1.812   0.095   2.559 -0.0846  0.0859  0.7850
 5564SOL     OW24130   1.780   4.387   0.008  0.0782  0.1105  0.1464
 5564SOL    HW124131   1.705   4.442  -0.030  1.0154  0.6738 -0.9170
 5564SOL    HW224132   1.830   4.442   0.076 -0.0085  0.0014  0.2974
 5565SOL     OW24133   2.519   6.604   3.220 -0.0704  0.4696 -0.3624
 5565SOL    HW124134   2.597   6.603   3.283  0.2542  0.9247 -0.7500
 5565SOL    HW224135   2.461   6.683   3.241 -1.4547 -0.9289  1.1562
 5566SOL     OW24136   9.483   0.707   1.164 -0.2890  0.2221 -0.0967
 5566SOL    HW124137   9.462   0.791   1.213 -1.0821  0.8205 -1.4336
 5566SOL    HW224138   9.582   0.695   1.159 -0.1874  0.5390  0.9690
 5567SOL     OW24139   9.249   9.110   1.711  0.3135  0.3660  0.2778
 5567SOL    HW124140   9.178   9.180   1.707 -0.9260 -0.9680 -1.8388
 5567SOL    HW224141   9.338   9.154   1.725 -0.5986  2.2528  0.3160
 5568SOL     OW24142   9.219   3.730   1.759  0.7135 -0.2018 -0.2009
 5568SOL    HW124143   9.224   3.726   1.659  0.8960  0.7299 -0.2265
 5568SOL    HW224144   9.309   3.754   1.796  0.6012 -0.3658  0.1784
 5569SOL     OW24145   1.957   8.717   1.886 -0.8232  0.2925 -0.0059
 5569SOL    HW124146   2.054   8.736   1.904 -0.7960  0.9580 -0.8441
 5569SOL    HW224147   1.901   8.785   1.934 -0.8264  0.7555 -0.6669
 5573SOL     OW24148   3.502   2.423   3.535  0.3468  0.0917 -0.0884
 5573SOL    HW124149   3.542   2.507   3.571  1.6272 -0.4895 -0.1204
 5573SOL    HW224150   3.404   2.422   3.553  0.4884  1.1526  0.7792
 5574SOL     OW24151   2.801   9.411   4.260  0.1637  0.1141 -0.1523
 5574SOL    HW124152   2.894   9.444   4.272  0.4339 -0.1736 -1.4686
 5574SOL    HW224153   2.736   9.483   4.286  0.7423  0.4503  0.3767
 5575SOL     OW24154   0.614   4.201   1.710 -0.0758 -0.0684 -0.0548
 5575SOL    HW124155   0.621   4.102   1.692 -0.1663 -0.2878  1.0945
 5575SOL    HW224156   0.565   4.244   1.634 -0.4806 -0.9831 -0.3316
 5576SOL     OW24157   9.249   2.507   3.906  0.7698  0.3802 -0.5336
 5576SOL    HW124158   9.259   2.408   3.901 -1.7304  0.1009 -0.4287
 5576SOL    HW224159   9.156   2.533   3.879  0.8239  2.5435  1.1935
 5577SOL     OW24160   1.759   6.084   0.953  0.1130  0.1051 -0.4127
 5577SOL    HW124161   1.834   6.081   1.019  0.7465 -2.3802 -1.1982
 5577SOL    HW224162   1.751   6.177   0.916  0.6469  1.1995  2.0803
 5579SOL     OW24163   7.705   1.676   1.294  0.2319  0.6439 -0.0265
 5579SOL    HW124164   7.771   1.720   1.233 -2.0501  1.7773 -1.7481
 5579SOL    HW224165   7.667   1.595   1.249  1.2649 -0.6760  1.4240
 5581SOL     OW24166   4.719   2.211   3.988  1.2364 -0.6601 -0.3030
 5581SOL    HW124167   4.680   2.289   3.941  0.8003 -0.9757 -0.4632
 5581SOL    HW224168   4.803   2.183   3.942  1.4525 -0.2225 -0.1812
 5582SOL     OW24169   4.594   2.387   1.635 -0.0700  0.9617  0.1769
 5582SOL    HW124170   4.562   2.303   1.593 -0.5966  0.9278  0.6465
 5582SOL    HW224171   4.543   2.405   1.719  1.6501  0.4888  1.3547
 5583SOL     OW24172   8.601   6.177   1.726 -0.3436 -0.4430  0.0197
 5583SOL    HW124173   8.502   6.167   1.710 -0.4467  0.6533 -0.1241
 5583SOL    HW224174   8.625   6.133   1.812 -0.6468 -2.2189 -0.7824
 5585SOL     OW24175   7.129   0.089   1.696  0.2053  0.2591 -0.1807
 5585SOL    HW124176   7.095   0.182   1.707  0.6535  0.5448 -1.0933
 5585SOL    HW224177   7.104   0.034   1.775  0.2647  1.2589  0.5430
 5586SOL     OW24178   9.851   0.757   2.935 -0.2100  0.5675 -0.0045
 5586SOL    HW124179   9.825   0.819   2.862 -0.3313  0.0326 -0.4174
 5586SOL    HW224180   9.913   0.804   2.998  1.7179  0.3300 -1.6910
 5587SOL     OW24181   2.793   1.835   3.810  0.1142  0.2135  0.7431
 5587SOL    HW124182   2.781   1.767   3.738 -2.4516  0.2150  1.1494
 5587SOL    HW224183   2.738   1.916   3.789 -0.6521  0.2201  2.6773
 5588SOL     OW24184   9.801   9.188   2.556  0.0566  0.1750  0.2585
 5588SOL    HW124185   9.854   9.270   2.535  0.7065 -0.6970 -1.5368
 5588SOL    HW224186   9.704   9.212   2.565  0.5432  1.5445  2.2621
 5589SOL     OW24187   0.639   8.473   2.091 -0.4393  0.2742 -0.2366
 5589SOL    HW124188   0.645   8.499   2.187 -1.5724 -0.4939  0.0491
 5589SOL    HW224189   0.714   8.411   2.068  1.4954  2.6752 -0.5867
 5590SOL     OW24190   3.185   5.761   1.498  0.1569 -0.4451 -0.7622
 5590SOL    HW124191   3.285   5.770   1.498  0.0892  0.3477 -1.1844
 5590SOL    HW224192   3.156   5.722   1.411  0.0411 -0.0644 -0.8917
 5591SOL     OW24193   8.200   0.391   0.733 -0.0379 -0.2159  0.1445
 5591SOL    HW124194   8.172   0.477   0.776 -1.2363 -0.7656  0.4771
 5591SOL    HW224195   8.191   0.317   0.799 -1.2733 -0.9660 -0.8398
 5592SOL     OW24196   9.052   7.359   2.299  0.1313  0.1528  0.2127
 5592SOL    HW124197   9.037   7.437   2.238  1.1427  0.1995  0.0137
 5592SOL    HW224198   9.093   7.284   2.247 -1.5750 -0.7986  0.2289
 5595SOL     OW24199   1.244   1.382   0.195 -0.2589  0.2335 -0.4237
 5595SOL    HW124200   1.150   1.415   0.203 -0.6966 -1.4149  1.8354
 5595SOL    HW224201   1.277   1.352   0.285  2.2600  0.2837 -1.2675
 5596SOL     OW24202   1.948   7.497   3.595 -0.4199  0.1415 -0.4120
 5596SOL    HW124203   1.951   7.578   3.654 -0.2459 -0.4373  0.3901
 5596SOL    HW224204   1.857   7.458   3.596 -0.4942  0.3037 -0.7704
 5597SOL     OW24205   0.263   6.796   0.156 -0.2028 -0.5447  0.1343
 5597SOL    HW124206   0.325   6.745   0.215  0.5222  0.6455  0.4287
 5597SOL    HW224207   0.261   6.754   0.065  2.5808  0.5160 -0.4667
 5598SOL     OW24208   8.549   7.759   3.031  0.3705 -0.2216  0.6703
 5598SOL    HW124209   8.628   7.771   3.092  1.4505  0.7373 -0.8755
 5598SOL    HW224210   8.467   7.745   3.086  1.3373  0.5165  2.3550
 5599SOL     OW24211   0.545   1.094   2.847  0.2178 -0.1085  0.6015
 5599SOL    HW124212   0.633   1.112   2.892  1.0200 -1.3557 -0.4373
 5599SOL    HW224213   0.554   1.016   2.785 -0.0115  3.3253 -4.0394
 5600SOL     OW24214   2.120   5.751   3.793  0.2762  0.2818  0.1780
 5600SOL    HW124215   2.181   5.830   3.788  1.3659 -0.4726  1.4319
 5600SOL    HW224216   2.124   5.699   3.708  1.6930  0.0076  0.4140
 5601SOL     OW24217   3.496   1.303   2.443 -0.1067 -0.4206  0.4915
 5601SOL    HW124218   3.488   1.255   2.357 -0.6005 -0.0912  0.3519
 5601SOL    HW224219   3.575   1.365   2.439 -1.2339  0.9892 -0.4134
 5603SOL     OW24220   7.306   9.076   0.896  0.6783  0.2867  0.0424
 5603SOL    HW124221   7.209   9.097   0.907  0.3277 -0.8972 -0.7795
 5603SOL    HW224222   7.338   9.026   0.977  0.2328 -0.6692 -0.3714
 5604SOL     OW24223   8.257   5.843   0.530 -0.0138  0.5570  0.3233
 5604SOL    HW124224   8.205   5.858   0.446 -0.9557 -0.3128  0.7331
 5604SOL    HW224225   8.354   5.828   0.507 -0.1138  1.1771 -0.5295
 5605SOL     OW24226   9.938   9.242   0.049  0.4725 -0.1844 -0.6032
 5605SOL    HW124227  10.016   9.269   0.106  0.9542 -0.0418 -1.3350
 5605SOL    HW224228   9.873   9.190   0.105 -0.3406  2.2250  0.7752
 5606SOL     OW24229   4.808   3.464   0.047  0.1615 -0.0187  0.0529
 5606SOL    HW124230   4.869   3.431   0.119 -0.1041 -1.2949 -0.2981
 5606SOL    HW224231   4.838   3.429  -0.041  0.2453  1.2062 -0.4187
 5607SOL     OW24232   1.299   0.658   2.962  0.5255  0.0609  0.3362
 5607SOL    HW124233   1.368   0.650   2.889  0.5770 -1.2437  0.5222
 5607SOL    HW224234   1.241   0.577   2.962 -0.4805  0.7718  0.7404
 5608SOL     OW24235   7.116   9.459   0.754 -0.0095 -0.1624 -0.6068
 5608SOL    HW124236   7.076   9.395   0.820  0.9964 -0.9030 -0.7070
 5608SOL    HW224237   7.214   9.468   0.771 -0.3284  2.2642  0.1364
 5609SOL     OW24238   1.691   1.857   0.612 -0.1546 -0.0101 -0.2169
 5609SOL    HW124239   1.607   1.911   0.617 -1.3429 -1.4589 -3.2041
 5609SOL    HW224240   1.693   1.790   0.686 -1.7086 -0.0828 -0.2261
 5611SOL     OW24241   3.801   0.517   1.290  0.1086 -0.3984  0.5936
 5611SOL    HW124242   3.876   0.573   1.256  0.2144 -0.9682 -0.1261
 5611SOL    HW224243   3.818   0.421   1.266 -1.4721 -0.3737 -0.6942
 5613SOL     OW24244   4.585   3.863   0.057 -0.5727 -0.5815 -0.0743
 5613SOL    HW124245   4.507   3.861   0.119 -2.1594 -1.0957 -2.0250
 5613SOL    HW224246   4.586   3.780   0.001 -0.3015  0.7164 -2.0521
 5615SOL     OW24247   8.044   5.830   2.551  0.1744 -0.2536 -0.0433
 5615SOL    HW124248   8.046   5.809   2.453  1.0751 -1.7699  0.2771
 5615SOL    HW224249   7.969   5.781   2.594  1.5180 -1.8677  0.4972
 5616SOL     OW24250   3.740   1.344   1.112  0.1043 -0.2766 -0.4640
 5616SOL    HW124251   3.754   1.266   1.173 -2.6375 -0.3963  0.0709
 5616SOL    HW224252   3.642   1.365   1.107  0.5075  1.0737 -3.1864
 5617SOL     OW24253   4.161   7.535   2.300 -0.0823  0.3176  0.7578
 5617SOL    HW124254   4.141   7.437   2.303  2.7075 -0.3084  0.5432
 5617SOL    HW224255   4.232   7.557   2.367  0.6409  1.8583 -0.4839
 5618SOL     OW24256   9.402   5.126   3.553  0.4758  0.0352 -0.7613
 5618SOL    HW124257   9.455   5.102   3.635 -3.0165 -0.9225  1.3279
 5618SOL    HW224258   9.389   5.044   3.497 -0.9336 -0.3204  0.0567
 5621SOL     OW24259   1.097   9.998   1.773  0.2240  0.1857 -0.2329
 5621SOL    HW124260   1.029   9.929   1.750 -0.6044  0.7443  0.5269
 5621SOL    HW224261   1.091  10.021   1.870  0.7210  1.0683 -0.3994
 5622SOL     OW24262   4.930   4.079   0.524 -0.0873  0.2667 -0.4137
 5622SOL    HW124263   4.955   3.991   0.483 -0.6953  0.1524 -0.5425
 5622SOL    HW224264   4.927   4.149   0.453 -2.8834 -0.2843 -0.9003
 5623SOL     OW24265   8.120   1.693   1.220  0.6527 -0.3522 -0.3114
 5623SOL    HW124266   8.107   1.596   1.203 -1.4158 -0.6536  2.6010
 5623SOL    HW224267   8.206   1.708   1.269  0.8070 -0.7432 -0.4668
 5624SOL     OW24268   2.151   8.183   3.774 -0.3925 -0.0513 -0.1901
 5624SOL    HW124269   2.055   8.200   3.753 -0.1343  0.5319 -0.9171
 5624SOL    HW224270   2.207   8.256   3.734  0.3341 -0.2964  0.3779
 5625SOL     OW24271   6.961   7.530   1.690  0.3675  0.1568 -0.4727
 5625SOL    HW124272   6.974   7.472   1.770  1.1349 -1.0255 -1.4274
 5625SOL    HW224273   6.864   7.531   1.665  0.0467  0.9848  0.7981
 5626SOL     OW24274   7.307   7.389   2.213  0.0738 -0.0664 -0.5572
 5626SOL    HW124275   7.282   7.293   2.226 -0.7679  0.0644 -1.1683
 5626SOL    HW224276   7.298   7.413   2.116 -1.5733  1.1424 -0.1178
 5627SOL     OW24277   8.176   6.700   0.258 -0.6138 -0.3925 -0.1514
 5627SOL    HW124278   8.078   6.679   0.264 -0.9319  0.8710 -0.7131
 5627SOL    HW224279   8.229   6.618   0.281 -1.8010 -1.8407 -2.3140
 5628SOL     OW24280   2.564   5.261   2.750  0.1630 -0.0249 -0.0750
 5628SOL    HW124281   2.627   5.304   2.685  0.3459 -0.9251 -0.5018
 5628SOL    HW224282   2.520   5.182   2.707 -0.9842  0.3720  0.3443
 5629SOL     OW24283   0.933   5.819   2.605  0.5650 -0.3481 -0.0328
 5629SOL    HW124284   0.939   5.815   2.705  0.1752  1.3231  0.0814
 5629SOL    HW224285   1.008   5.875   2.570 -0.0555  0.1477 -0.5716
 5630SOL     OW24286   1.172   7.573   3.075  0.3838  0.3543  0.0139
 5630SOL    HW124287   1.078   7.603   3.088 -1.5999 -4.1115 -2.8824
 5630SOL    HW224288   1.215   7.628   3.003 -0.9348  0.5661 -0.6196
 5631SOL     OW24289   1.596   8.294   2.312 -0.0127 -0.2470 -0.0635
 5631SOL    HW124290   1.676   8.251   2.353 -0.3655  0.2974  1.2218
 5631SOL    HW224291   1.583   8.385   2.351  1.0094  1.2847 -3.1144
 5632SOL     OW24292   6.030   0.320   1.011  0.1908 -0.3427  0.2358
 5632SOL    HW124293   5.967   0.308   1.087 -0.2620  0.5076 -0.0073
 5632SOL    HW224294   6.030   0.415   0.981  1.2409 -0.4265 -0.0664
 5633SOL     OW24295   8.019   0.892   4.074 -0.6144 -0.5323 -0.2354
 5633SOL    HW124296   7.929   0.919   4.108 -0.4914 -0.8628  0.3609
 5633SOL    HW224297   8.013   0.802   4.031 -0.7197 -0.2223 -0.8845
 5634SOL     OW24298   1.049   7.549   2.608 -0.5652 -0.2626 -0.1868
 5634SOL    HW124299   1.133   7.496   2.623 -1.5838 -2.3052 -1.4581
 5634SOL    HW224300   1.073   7.637   2.568  1.0403 -0.4620  0.2734
 5635SOL     OW24301   2.486   9.274   3.404 -0.0443  0.4315 -0.3297
 5635SOL    HW124302   2.391   9.298   3.385  0.2625  1.2868 -0.7866
 5635SOL    HW224303   2.507   9.185   3.364 -1.0468 -0.4040  0.9518
 5637SOL     OW24304   2.926   3.033   2.157 -0.4223  0.3679  0.3030
 5637SOL    HW124305   2.994   2.971   2.197 -1.0259  0.7156  1.8920
 5637SOL    HW224306   2.852   2.980   2.117 -1.6537  0.0593  2.9283
 5638SOL     OW24307   7.648   2.564   1.660 -0.2161  0.2058  0.3749
 5638SOL    HW124308   7.616   2.529   1.572 -0.4654  0.7493  0.2490
 5638SOL    HW224309   7.735   2.521   1.684 -0.5315 -0.5190  0.2308
 5639SOL     OW24310   9.412   7.147   2.564 -0.2119  0.3055  0.4335
 5639SOL    HW124311   9.358   7.080   2.513  0.7973 -0.8195  0.8266
 5639SOL    HW224312   9.350   7.212   2.608 -1.1999 -0.3189 -0.0038
 5640SOL     OW24313   2.444   4.302   2.680 -0.1803  0.1139  0.1637
 5640SOL    HW124314   2.426   4.395   2.648 -0.0496  0.1532  0.2048
 5640SOL    HW224315   2.542   4.290   2.694  0.2312 -1.1724 -3.4054
 5641SOL     OW24316   9.595   1.020   1.036  0.2950 -0.3287  0.5340
 5641SOL    HW124317   9.632   1.110   1.010 -0.2437 -0.3977 -0.5050
 5641SOL    HW224318   9.666   0.968   1.084  0.8263  0.3917  0.5546
 5642SOL     OW24319   7.799   5.226   4.210  0.1424  0.1172 -0.2276
 5642SOL    HW124320   7.838   5.318   4.208 -0.0974  0.2198 -0.1701
 5642SOL    HW224321   7.768   5.205   4.302 -1.7395  0.7916 -0.6920
 5644SOL     OW24322   9.573   6.450   4.383 -0.0839 -0.0411  0.0537
 5644SOL    HW124323   9.564   6.539   4.340  0.8506  0.6704  1.3015
 5644SOL    HW224324   9.557   6.378   4.315 -0.6659  1.0617 -0.9941
 5645SOL     OW24325   6.779   7.348   3.059 -0.1830  0.6759 -0.0451
 5645SOL    HW124326   6.787   7.388   2.968 -1.4032  2.0615  0.4365
 5645SOL    HW224327   6.684   7.354   3.090  0.3697  0.9764  1.6505
 5646SOL     OW24328   9.631   1.161   2.982  0.5293 -0.5363  0.5016
 5646SOL    HW124329   9.600   1.084   3.038 -0.3258  0.4740  1.4453
 5646SOL    HW224330   9.611   1.247   3.029  1.3539  0.2798 -0.5955
 5647SOL     OW24331   3.713   1.189   1.624 -0.0474 -0.0435  0.0487
 5647SOL    HW124332   3.761   1.263   1.670 -1.5235  1.0125 -0.0548
 5647SOL    HW224333   3.619   1.184   1.658  0.0781 -1.9835  0.1680
 5648SOL     OW24334   9.290   6.122   4.404 -0.3412  0.0192  0.1079
 5648SOL    HW124335   9.282   6.084   4.312 -0.7530  0.6715 -0.1321
 5648SOL    HW224336   9.291   6.222   4.399 -0.7842  0.0642  0.8455
 5649SOL     OW24337   9.083   7.968   4.283 -0.1169 -0.7907  0.1511
 5649SOL    HW124338   9.053   7.874   4.272 -0.8809 -0.6459  0.8512
 5649SOL    HW224339   9.179   7.970   4.313 -0.8741 -1.4513  2.7520
 5650SOL     OW24340   3.107   6.158   1.489  0.0470 -0.1554  0.6188
 5650SOL    HW124341   3.133   6.162   1.586 -1.8647  0.6281  1.1332
 5650SOL    HW224342   3.008   6.143   1.483 -0.0893  1.4739 -1.2232
 5651SOL     OW24343   2.869   2.785   1.359 -0.0599  0.1431  0.2477
 5651SOL    HW124344   2.949   2.842   1.339 -0.5381  0.5295 -0.6125
 5651SOL    HW224345   2.875   2.701   1.305 -0.7063  0.6001 -0.5373
 5652SOL     OW24346   3.956   9.189   0.659 -0.5167 -0.0693 -0.0550
 5652SOL    HW124347   3.900   9.236   0.727 -0.9771  0.1296 -0.5707
 5652SOL    HW224348   3.965   9.245   0.577  1.6889  0.5613  0.5784
 5653SOL     OW24349   4.517   2.943   3.961 -0.1577  0.1332  0.0372
 5653SOL    HW124350   4.453   3.009   3.922 -0.5712 -0.3977 -0.2059
 5653SOL    HW224351   4.596   2.933   3.902 -0.1248  0.3699  0.0438
 5655SOL     OW24352   0.855   3.908   0.821 -0.2354  0.1681 -0.0958
 5655SOL    HW124353   0.922   3.910   0.748 -0.6965  0.5411 -0.5117
 5655SOL    HW224354   0.878   3.977   0.890 -0.3697  0.5326 -0.4074
 5656SOL     OW24355   9.239   4.718   1.087  0.6841  0.0518  0.1852
 5656SOL    HW124356   9.308   4.721   1.015 -0.4262  0.2010 -0.8785
 5656SOL    HW224357   9.277   4.672   1.167  1.5652 -1.0778 -0.8614
 5658SOL     OW24358   8.577   7.506   2.918  0.0424 -0.2530  0.5922
 5658SOL    HW124359   8.489   7.463   2.939 -0.7789  0.7051 -0.8630
 5658SOL    HW224360   8.578   7.598   2.956  0.5074 -0.3460  0.8003
 5659SOL     OW24361   3.560   4.590   1.620  0.5879 -0.1100 -0.0652
 5659SOL    HW124362   3.512   4.510   1.654 -0.1521  0.3364 -0.0421
 5659SOL    HW224363   3.609   4.567   1.535 -1.2793 -0.0822 -1.1700
 5660SOL     OW24364   4.818   0.544   4.372  0.0727 -0.6282 -0.4317
 5660SOL    HW124365   4.744   0.509   4.315  0.5794 -0.4923 -1.1883
 5660SOL    HW224366   4.904   0.538   4.321  0.4727 -0.1490  0.1810
 5663SOL     OW24367   4.284   0.292   3.710 -0.9221  0.0300  0.5505
 5663SOL    HW124368   4.289   0.204   3.663 -0.2419 -0.5646  1.7316
 5663SOL    HW224369   4.372   0.339   3.702 -0.3816 -0.6454  2.3163
 5666SOL     OW24370   1.439   9.053   4.082  0.1428 -0.1972  0.1708
 5666SOL    HW124371   1.399   8.965   4.107 -1.4141  0.4086 -0.1214
 5666SOL    HW224372   1.442   9.113   4.162  0.8119 -0.3672  0.2747
 5667SOL     OW24373   5.520   8.564   3.344  0.0971 -0.4632 -0.0467
 5667SOL    HW124374   5.498   8.650   3.390  0.2253 -0.4436 -0.0247
 5667SOL    HW224375   5.566   8.582   3.258  0.5273 -0.5237  0.1707
 5668SOL     OW24376   5.258   7.664   2.980  0.8523  0.6095 -0.2899
 5668SOL    HW124377   5.162   7.635   2.982  1.4320 -1.3160  1.0276
 5668SOL    HW224378   5.303   7.627   2.899  0.5083  1.5392 -0.9254
 5669SOL     OW24379   1.560   1.036   4.049 -0.0265  0.5357 -0.9091
 5669SOL    HW124380   1.485   0.974   4.072  0.3997  0.4365  0.2403
 5669SOL    HW224381   1.527   1.130   4.048 -0.0816  0.5249 -0.0385
 5670SOL     OW24382   2.606   7.994   2.594 -0.4414  0.1789  0.4143
 5670SOL    HW124383   2.641   8.058   2.663  1.7585 -0.4358 -0.0646
 5670SOL    HW224384   2.614   7.900   2.629  1.7738 -0.2322 -1.0488
 5671SOL     OW24385   3.486   2.966   1.538 -0.0984  0.3648 -0.2536
 5671SOL    HW124386   3.483   3.062   1.564  0.1553 -0.4691  3.1616
 5671SOL    HW224387   3.576   2.944   1.500  1.0262  0.8008  2.0525
 5672SOL     OW24388   1.116   6.232   0.315 -0.3028  0.2248 -0.5381
 5672SOL    HW124389   1.090   6.227   0.219 -1.5215  0.7034 -0.2414
 5672SOL    HW224390   1.035   6.254   0.370  0.3876 -0.0402  0.5918
 5673SOL     OW24391   9.062   3.734   3.872 -0.0072 -0.3306 -0.3595
 5673SOL    HW124392   8.982   3.794   3.867  1.5017  1.8275  0.5863
 5673SOL    HW224393   9.129   3.761   3.803  1.5168  0.4100  1.3429
 5674SOL     OW24394   2.427   1.122   1.011  0.4319 -0.4576  0.1448
 5674SOL    HW124395   2.391   1.214   1.001  0.4155 -0.1484  2.7113
 5674SOL    HW224396   2.483   1.116   1.094  0.9833 -2.5867 -0.3278
 5675SOL     OW24397   5.754   9.746   1.423 -0.1329 -0.0304 -0.5304
 5675SOL    HW124398   5.779   9.814   1.493  0.1873  1.8130 -2.3902
 5675SOL    HW224399   5.657   9.721   1.435  0.0180 -0.0445  0.8065
 5676SOL     OW24400   0.991   2.249   1.019  0.1256  0.0067 -0.1559
 5676SOL    HW124401   1.066   2.202   1.066 -1.2382  0.9583  3.1034
 5676SOL    HW224402   0.956   2.322   1.077 -2.9927 -0.0290 -1.8834
 5677SOL     OW24403   3.929   4.595   3.575  0.2959 -0.2507 -0.4867
 5677SOL    HW124404   4.006   4.541   3.542  1.2118 -0.4094  1.8780
 5677SOL    HW224405   3.844   4.556   3.539  0.8425 -3.9067  1.9086
 5678SOL     OW24406   2.923   3.259   0.350  0.6832 -0.3946 -0.9926
 5678SOL    HW124407   2.891   3.233   0.259 -1.8933 -1.2357  0.1382
 5678SOL    HW224408   2.997   3.198   0.378 -2.1935 -3.7129 -0.2806
 5679SOL     OW24409   4.111   8.000   2.398  0.1692  0.2208 -0.2113
 5679SOL    HW124410   4.162   7.936   2.455 -0.8061  0.9314  1.5162
 5679SOL    HW224411   4.026   8.026   2.445  0.4151  2.5545 -0.9968
 5680SOL     OW24412   1.208   6.055   1.136  0.2458 -0.0928 -0.5556
 5680SOL    HW124413   1.294   6.057   1.186  0.2678  0.0087 -0.5970
 5680SOL    HW224414   1.137   6.101   1.190  0.1853 -0.3025 -0.4599
 5682SOL     OW24415   1.347   6.573   0.126  1.0489  0.0047  0.0462
 5682SOL    HW124416   1.271   6.638   0.119  0.3829 -0.8565 -0.8338
 5682SOL    HW224417   1.321   6.498   0.186  0.8820 -0.7236 -0.9268
 5684SOL     OW24418   0.405   1.037   4.368 -0.1929  0.1415  0.2617
 5684SOL    HW124419   0.329   1.061   4.307  2.4954  2.2364 -2.4224
 5684SOL    HW224420   0.401   1.095   4.450 -2.3287 -0.8710  0.9289
 5687SOL     OW24421   0.263   3.125   1.722 -0.1111 -0.7054 -0.3506
 5687SOL    HW124422   0.183   3.186   1.724  0.4426 -0.0032  0.9378
 5687SOL    HW224423   0.285   3.096   1.815  1.9684  0.2240 -0.5219
 5688SOL     OW24424   0.204   1.129   0.060  0.0182 -0.2712  0.9799
 5688SOL    HW124425   0.131   1.192   0.085 -0.3265 -1.0866  2.0491
 5688SOL    HW224426   0.293   1.169   0.084 -0.1996 -0.2200  1.6921
 5689SOL     OW24427   2.556   2.850   4.332  0.2898 -0.2603  0.1292
 5689SOL    HW124428   2.554   2.913   4.410 -1.9928  2.9029 -2.3620
 5689SOL    HW224429   2.473   2.793   4.333 -0.0816  0.2693 -0.3623
 5690SOL     OW24430   1.712   8.174   2.100 -0.0958 -0.0067  0.2979
 5690SOL    HW124431   1.641   8.124   2.050 -0.2516  0.4118  0.0923
 5690SOL    HW224432   1.672   8.217   2.181  0.2491 -1.0530  1.0306
 5691SOL     OW24433   2.444   0.191   0.032  0.2378 -0.4101  0.2537
 5691SOL    HW124434   2.491   0.277   0.012  1.7513 -1.5172 -1.1107
 5691SOL    HW224435   2.401   0.156  -0.050  0.4467 -1.4329  0.5673
 5692SOL     OW24436   7.352   7.418   1.950  0.5877 -0.0783 -0.2902
 5692SOL    HW124437   7.299   7.390   1.869 -1.5962 -0.3385  1.1769
 5692SOL    HW224438   7.335   7.515   1.969  1.6200  0.1500 -0.5385
 5693SOL     OW24439   4.491   7.065   1.217  0.4195  0.0669 -0.0451
 5693SOL    HW124440   4.468   6.988   1.278  0.2733 -0.7870 -1.1688
 5693SOL    HW224441   4.460   7.044   1.125 -1.3861  2.3206  0.0097
 5694SOL     OW24442   0.875   6.253   0.431  0.0874  0.2821  0.3620
 5694SOL    HW124443   0.822   6.310   0.368  1.8796  0.6218 -0.8636
 5694SOL    HW224444   0.818   6.176   0.462 -0.9223  0.2665 -1.4471
 5695SOL     OW24445   1.447   3.922   0.470 -0.0207  0.2362  0.1446
 5695SOL    HW124446   1.384   3.931   0.393 -0.9670 -2.3677  0.5782
 5695SOL    HW224447   1.397   3.931   0.556  0.8423  1.9683  0.4900
 5696SOL     OW24448   3.107   6.817   2.486  0.0891 -0.0857  0.2579
 5696SOL    HW124449   3.033   6.767   2.441 -0.4608 -0.5084  1.6068
 5696SOL    HW224450   3.098   6.807   2.585  2.6248 -1.1410  0.4298
 5697SOL     OW24451   1.145   2.500   3.403  0.5719 -0.2738 -0.4521
 5697SOL    HW124452   1.219   2.447   3.444  0.0523 -2.4299 -2.1546
 5697SOL    HW224453   1.180   2.556   3.329  0.7074 -0.2746 -0.3877
 5698SOL     OW24454   2.895   5.269   4.051  0.3309 -0.2871 -0.2135
 5698SOL    HW124455   2.798   5.270   4.029  0.1047  3.1082  0.7474
 5698SOL    HW224456   2.907   5.255   4.150  0.9549 -3.0535 -0.6255
 5699SOL     OW24457   7.886   0.040   3.470  0.1826  0.5301  0.1533
 5699SOL    HW124458   7.970   0.052   3.418 -0.9131  2.1724 -1.2883
 5699SOL    HW224459   7.859   0.127   3.511 -2.5562  0.8917 -2.1886
 5700SOL     OW24460   5.375   0.024   3.654  0.3758 -0.4072  0.3287
 5700SOL    HW124461   5.386  -0.075   3.644  0.7477 -0.1755 -1.7195
 5700SOL    HW224462   5.439   0.071   3.594  1.2217  1.1143  2.3736
 5701SOL     OW24463   1.115   5.899   3.641  0.1839 -0.7147  0.3510
 5701SOL    HW124464   1.020   5.887   3.612  0.9541 -0.2967 -2.5033
 5701SOL    HW224465   1.135   5.996   3.650  0.2421 -0.8151  1.3202
 5702SOL     OW24466   2.358   9.096   1.310 -0.1353 -0.2584 -0.1555
 5702SOL    HW124467   2.259   9.101   1.319 -0.2836 -2.8249  0.0776
 5702SOL    HW224468   2.382   9.081   1.214  0.1271  1.8293 -0.4360
 5705SOL     OW24469   3.794   4.376   3.886  0.3849 -0.1663  0.3801
 5705SOL    HW124470   3.846   4.305   3.935  0.6351 -0.2152  0.0489
 5705SOL    HW224471   3.855   4.452   3.864  1.0532 -1.4412 -2.4942
 5706SOL     OW24472   1.586   4.691   3.909  0.1495 -0.3762  0.0595
 5706SOL    HW124473   1.588   4.783   3.870 -0.0530 -0.4897 -0.2233
 5706SOL    HW224474   1.495   4.672   3.945  0.0121 -0.6951 -0.4470
 5708SOL     OW24475   3.730   2.900   4.226  0.2927 -0.2412  0.2130
 5708SOL    HW124476   3.711   2.908   4.324 -0.3086  0.9776  0.0078
 5708SOL    HW224477   3.664   2.838   4.184  0.1094 -0.2141  0.4585
 5709SOL     OW24478   3.130   3.718   1.769 -0.2121  0.3190 -0.5945
 5709SOL    HW124479   3.207   3.655   1.770  1.9766  2.8352 -2.3955
 5709SOL    HW224480   3.066   3.691   1.697  0.4165 -0.1624 -0.9809
 5710SOL     OW24481   3.251   4.824   4.320  0.9136  0.6197  1.1211
 5710SOL    HW124482   3.214   4.903   4.271  0.4456  1.5249  2.8753
 5710SOL    HW224483   3.302   4.856   4.400 -0.1290 -0.8936  2.4217
 5712SOL     OW24484   8.368   3.773   0.079  0.6325  0.2202 -0.2938
 5712SOL    HW124485   8.412   3.860   0.099 -0.4269  0.5575  0.6257
 5712SOL    HW224486   8.272   3.789   0.055  0.8870 -0.5369 -1.8735
 5713SOL     OW24487   2.672   9.960   2.920  0.0505  0.2321  0.0511
 5713SOL    HW124488   2.636   9.949   2.827 -0.4787  0.3251  0.2456
 5713SOL    HW224489   2.601   9.996   2.980  0.8205  1.6488  0.1554
 5714SOL     OW24490   5.214   9.249   2.575 -0.6643  0.3626  0.0135
 5714SOL    HW124491   5.228   9.271   2.478 -2.4160 -1.0040 -0.5776
 5714SOL    HW224492   5.227   9.151   2.589  1.3720  0.8239  1.5323
 5715SOL     OW24493   0.571   0.467   2.043  0.0497 -0.3517  0.5660
 5715SOL    HW124494   0.632   0.413   1.985  0.0032 -0.9053  1.0228
 5715SOL    HW224495   0.476   0.452   2.015  0.2354  2.7880 -2.0803
 5716SOL     OW24496   7.150   1.609   0.486 -0.0863 -0.2427 -0.0381
 5716SOL    HW124497   7.133   1.553   0.405  0.1721 -1.5215  0.7755
 5716SOL    HW224498   7.081   1.589   0.555  1.1119 -0.9589  0.9737
 5717SOL     OW24499   0.575   0.452   3.175 -0.7367  0.1950  0.1057
 5717SOL    HW124500   0.532   0.366   3.203 -0.8539  0.5204  0.9461
 5717SOL    HW224501   0.588   0.453   3.076 -1.5420 -0.4240 -0.0048
 5718SOL     OW24502   1.868   6.062   3.015  0.4734  0.0952  0.2755
 5718SOL    HW124503   1.875   5.969   3.053  0.4116 -0.4866 -1.0903
 5718SOL    HW224504   1.774   6.077   2.982  0.6497  0.4162 -0.0803
 5719SOL     OW24505   2.495   1.527   2.754 -0.0295 -0.1260 -0.3538
 5719SOL    HW124506   2.574   1.484   2.798 -1.1364 -1.4915  0.3359
 5719SOL    HW224507   2.465   1.471   2.677 -0.1722  0.5331 -0.7829
 5720SOL     OW24508   8.108   8.422   1.130 -0.1495 -0.1325  0.1617
 5720SOL    HW124509   8.122   8.466   1.041 -0.3375  0.0106  0.2019
 5720SOL    HW224510   8.011   8.426   1.154 -0.3408 -1.5138 -0.3322
 5721SOL     OW24511   2.094   7.925   1.792  0.4201  0.1702 -0.2319
 5721SOL    HW124512   2.042   7.970   1.720 -1.9883 -1.4684  0.4294
 5721SOL    HW224513   2.149   7.851   1.753 -0.4770 -0.3712 -0.4860
 5722SOL     OW24514   8.992   9.588   4.330 -0.6140  0.2207  0.1385
 5722SOL    HW124515   8.962   9.663   4.389 -0.0114  1.8998 -1.6333
 5722SOL    HW224516   9.073   9.545   4.371 -1.0738  0.3973  1.2650
 5724SOL     OW24517   6.418   7.210   3.593 -0.1544  0.1338  0.1470
 5724SOL    HW124518   6.354   7.235   3.666 -0.8199  1.2625 -0.8175
 5724SOL    HW224519   6.391   7.121   3.555 -0.4943  0.0901  0.4819
 5725SOL     OW24520   9.594   9.593   2.079 -0.5183 -0.6224  0.2046
 5725SOL    HW124521   9.587   9.567   1.983  0.6889 -1.1866  0.2595
 5725SOL    HW224522   9.684   9.634   2.096 -0.5464 -0.9402  1.1840
 5726SOL     OW24523   9.763   3.774   1.121  0.1742 -0.3565  0.7385
 5726SOL    HW124524   9.841   3.831   1.147 -0.0640  0.3805 -0.1198
 5726SOL    HW224525   9.757   3.771   1.021  0.0294 -1.6875  0.7901
 5727SOL     OW24526   0.835   5.745   0.226  0.5084 -0.4906 -0.1477
 5727SOL    HW124527   0.921   5.786   0.259  0.0572 -0.0649  0.5096
 5727SOL    HW224528   0.804   5.795   0.145  1.1286 -0.9441 -0.6665
 5728SOL     OW24529   0.363   8.133   3.479  0.0720 -0.5778  0.2240
 5728SOL    HW124530   0.273   8.122   3.522 -0.5717  0.2260 -0.9027
 5728SOL    HW224531   0.365   8.218   3.427  1.6462 -0.3757  0.6070
 5729SOL     OW24532   2.459   5.848   2.341 -0.1628 -0.2858 -0.0569
 5729SOL    HW124533   2.409   5.769   2.377  0.7998 -0.9906 -0.2682
 5729SOL    HW224534   2.473   5.914   2.415 -3.2307  0.8878 -0.4576
 5730SOL     OW24535   9.912   1.535   2.886 -0.4027 -0.2787 -0.2033
 5730SOL    HW124536   9.815   1.550   2.865 -0.6047 -2.5658 -1.0449
 5730SOL    HW224537   9.966   1.537   2.802  0.2070  0.4502  0.2007
 5732SOL     OW24538   6.307   1.633   2.191  0.1581 -0.4764 -0.2882
 5732SOL    HW124539   6.220   1.641   2.241  1.0325  0.9439  1.0623
 5732SOL    HW224540   6.347   1.543   2.209 -0.6277 -0.8209 -0.2320
 5733SOL     OW24541   1.668   3.546   1.688  0.4952 -0.1699 -0.1276
 5733SOL    HW124542   1.596   3.483   1.660 -1.1696  1.2689  0.7785
 5733SOL    HW224543   1.663   3.629   1.632  1.3163  0.0286  0.0921
 5735SOL     OW24544   0.906   3.881   2.683 -0.4771  0.1121 -0.3038
 5735SOL    HW124545   1.004   3.886   2.667 -0.1904  0.7861  1.5129
 5735SOL    HW224546   0.878   3.785   2.690 -0.1813 -0.1213 -2.0238
 5736SOL     OW24547   8.838   7.602   0.429  0.1324  0.0573  0.1169
 5736SOL    HW124548   8.747   7.610   0.470 -0.7737  1.9184 -2.1436
 5736SOL    HW224549   8.887   7.688   0.441  0.4852  0.0431 -1.1619
 5737SOL     OW24550   1.418   4.549   4.125  0.2556 -0.2950 -0.6205
 5737SOL    HW124551   1.328   4.526   4.161  1.2726 -4.2941 -0.4747
 5737SOL    HW224552   1.476   4.584   4.199 -0.5341  0.3522 -0.3064
 5738SOL     OW24553   8.471   7.281   0.996 -0.2841  0.1284  0.4035
 5738SOL    HW124554   8.518   7.198   0.968  1.2731  0.4141  2.0784
 5738SOL    HW224555   8.375   7.261   1.016 -0.2393 -0.9773 -0.4682
 5740SOL     OW24556   0.584   9.478   3.106  0.4055 -0.1601 -0.3842
 5740SOL    HW124557   0.493   9.435   3.103 -0.1035  0.9544 -1.6744
 5740SOL    HW224558   0.603   9.522   3.018  2.4693 -0.9067 -0.3266
 5741SOL     OW24559   1.713   5.513   2.962  0.3955 -0.2146 -0.4148
 5741SOL    HW124560   1.749   5.595   2.918  1.4425 -0.1178  0.5942
 5741SOL    HW224561   1.754   5.432   2.921  0.5779 -0.1671 -0.3270
 5743SOL     OW24562   1.468   5.893   4.199  0.0115 -0.1085  0.4533
 5743SOL    HW124563   1.436   5.966   4.138 -0.5972  0.8367  1.8680
 5743SOL    HW224564   1.568   5.900   4.209  0.1548 -0.4590 -0.6559
 5745SOL     OW24565   9.922   0.051   3.697 -0.2232 -0.1776  0.3823
 5745SOL    HW124566   9.892   0.056   3.793  0.6932 -0.2266  0.6794
 5745SOL    HW224567  10.010   0.004   3.692 -0.8983 -1.3638 -0.6433
 5747SOL     OW24568   9.905   8.116   0.021  0.0777 -0.3994 -0.4100
 5747SOL    HW124569   9.996   8.074   0.013 -0.2558 -0.8816 -1.7702
 5747SOL    HW224570   9.840   8.048   0.057  0.5923  0.4282  2.1747
 5749SOL     OW24571   3.953   2.668   2.236  0.0822 -0.0907 -0.8127
 5749SOL    HW124572   4.015   2.590   2.245 -1.0255 -0.8660  0.2478
 5749SOL    HW224573   3.872   2.653   2.292 -0.5790  1.4067 -1.3361
 5750SOL     OW24574   8.473   9.316   2.743 -0.1877 -0.2054  0.2788
 5750SOL    HW124575   8.573   9.309   2.748 -0.0870  0.2406 -1.1282
 5750SOL    HW224576   8.443   9.399   2.790  0.1287 -0.1498  0.3807
 5751SOL     OW24577   6.104   6.590   3.191  0.1877 -0.1710  0.1636
 5751SOL    HW124578   6.131   6.677   3.149 -1.1795 -0.1881 -0.7874
 5751SOL    HW224579   6.125   6.593   3.289  2.3262  0.3139 -0.2829
 5753SOL     OW24580   3.947   8.293   2.763  0.8420 -0.3068 -0.1219
 5753SOL    HW124581   4.039   8.313   2.731  0.3362 -0.1698 -1.5287
 5753SOL    HW224582   3.888   8.372   2.748 -0.0653 -1.2094 -1.4462
 5754SOL     OW24583   2.413   9.097   1.016  0.1955  0.0128  0.2796
 5754SOL    HW124584   2.350   9.023   0.994 -0.8246  1.2873 -1.1572
 5754SOL    HW224585   2.374   9.184   0.988  2.1389  0.9372  0.3533
 5755SOL     OW24586   0.681   9.787   4.361 -0.6605  1.1417  0.0365
 5755SOL    HW124587   0.619   9.780   4.283 -0.4634  1.5000 -0.1556
 5755SOL    HW224588   0.707   9.883   4.374  0.0493  0.9586 -0.0398
 5756SOL     OW24589   5.035   2.941   1.690 -0.2130  0.0538 -0.2805
 5756SOL    HW124590   4.986   3.027   1.708 -1.2429 -0.1959 -1.7934
 5756SOL    HW224591   4.976   2.864   1.711  0.6365 -0.3012  0.8600
 5757SOL     OW24592   6.561   8.071   3.941 -0.0830 -0.0758  0.4138
 5757SOL    HW124593   6.536   8.156   3.986 -1.0912 -1.0165  1.6877
 5757SOL    HW224594   6.660   8.067   3.929  0.1569  0.4050  2.1324
 5760SOL     OW24595   9.995   5.990   0.875  0.0033  0.1104  0.3035
 5760SOL    HW124596   9.903   6.030   0.869 -0.3710 -0.6870  0.5699
 5760SOL    HW224597  10.044   6.006   0.790 -1.0251 -1.0141 -0.5180
 5762SOL     OW24598   9.090   3.889   4.201  0.0092 -0.0063  0.2763
 5762SOL    HW124599   8.991   3.902   4.193 -0.2319 -1.8539  0.2367
 5762SOL    HW224600   9.135   3.976   4.183 -1.5031  0.4121 -1.7121
 5763SOL     OW24601   4.755   9.692   0.309 -0.0153  0.2840  0.4631
 5763SOL    HW124602   4.741   9.650   0.398 -1.2788 -0.1863  0.0595
 5763SOL    HW224603   4.798   9.781   0.320 -0.1461  0.2215  1.5436
 5764SOL     OW24604   0.826   7.195   0.581  0.4111 -0.2469 -0.0851
 5764SOL    HW124605   0.894   7.246   0.634  0.7804 -0.8662  0.0417
 5764SOL    HW224606   0.845   7.203   0.484  1.0971 -1.0162 -0.0190
 5766SOL     OW24607   8.567   2.877   2.988 -0.2216  0.3791  0.1148
 5766SOL    HW124608   8.480   2.903   3.030 -0.8329  0.8079 -1.3818
 5766SOL    HW224609   8.606   2.957   2.943  0.2499 -0.1588 -0.4329
 5767SOL     OW24610   2.844   3.615   1.584  0.1589  0.3852 -0.1327
 5767SOL    HW124611   2.856   3.714   1.589  0.4319  0.3019  0.9352
 5767SOL    HW224612   2.759   3.590   1.630  0.5446  0.0317  0.3874
 5768SOL     OW24613   1.465   7.740   2.047  0.8054 -0.0073  0.2897
 5768SOL    HW124614   1.536   7.712   2.112  1.0866 -0.5745 -0.2577
 5768SOL    HW224615   1.378   7.697   2.074  0.8019  0.1978  0.6075
 5769SOL     OW24616   0.157   3.696   4.038  0.0297 -0.6478 -0.1712
 5769SOL    HW124617   0.122   3.628   3.974 -1.8231  0.0434  0.0504
 5769SOL    HW224618   0.083   3.722   4.101  0.4644  2.1869 -0.7934
 5771SOL     OW24619   2.261   7.603   3.185  0.8241  0.7194  0.4843
 5771SOL    HW124620   2.272   7.700   3.164 -0.5059  0.8314  0.2642
 5771SOL    HW224621   2.341   7.553   3.153  0.9272  1.5557 -0.6029
 5772SOL     OW24622   6.340   9.236   3.860 -0.4486  0.4935 -0.4574
 5772SOL    HW124623   6.282   9.202   3.933 -3.2198  0.9589 -2.3507
 5772SOL    HW224624   6.391   9.160   3.820  2.0835  0.4341  2.7245
 5773SOL     OW24625   9.034   8.358   2.073  0.1739  0.5875  0.0608
 5773SOL    HW124626   9.051   8.453   2.097 -1.1505  0.3838  1.7986
 5773SOL    HW224627   9.009   8.352   1.976 -0.5097  2.0813  0.1413
 5774SOL     OW24628   8.853   1.711   0.008  0.3683 -0.4825 -0.1153
 5774SOL    HW124629   8.842   1.612   0.013  2.3940 -0.7789 -1.1650
 5774SOL    HW224630   8.922   1.741   0.075 -1.2811  0.4248  1.2332
 5775SOL     OW24631   0.649   4.618   0.163  0.1398  0.0915  0.4204
 5775SOL    HW124632   0.630   4.712   0.190  0.0952  0.2919 -0.3020
 5775SOL    HW224633   0.745   4.609   0.137 -0.2352  0.3252 -1.0916
 5776SOL     OW24634   0.410   2.264   3.727  0.0260 -0.1250 -0.1284
 5776SOL    HW124635   0.368   2.339   3.778 -0.1848 -0.2297 -0.1468
 5776SOL    HW224636   0.477   2.217   3.785 -0.7356 -0.6971  0.2913
 5778SOL     OW24637   1.989   4.296   0.461 -0.2490  0.8429  0.0786
 5778SOL    HW124638   1.963   4.251   0.376 -0.5356  0.1333  0.5398
 5778SOL    HW224639   2.089   4.291   0.472 -0.3379 -0.2849  0.4582
 5779SOL     OW24640   0.679   9.684   0.612 -0.0720 -0.2134 -0.3206
 5779SOL    HW124641   0.641   9.592   0.608 -1.3127  0.3692 -2.9118
 5779SOL    HW224642   0.608   9.750   0.636  0.8534  0.0898  1.7458
 5780SOL     OW24643   6.722   9.917   3.395 -0.3394  0.0933 -0.2815
 5780SOL    HW124644   6.804   9.956   3.437 -0.8388  0.2870  0.5429
 5780SOL    HW224645   6.726   9.817   3.399 -1.3534  0.0968  2.2466
 5781SOL     OW24646   9.118   7.384   3.094 -0.0445  0.5204 -0.2185
 5781SOL    HW124647   9.033   7.398   3.042 -0.5826 -1.5073  0.0669
 5781SOL    HW224648   9.196   7.391   3.032 -0.5898 -0.3733 -1.0287
 5782SOL     OW24649   8.300   0.062   1.940  0.1624  0.6864 -0.6212
 5782SOL    HW124650   8.331  -0.016   1.886  0.9736  0.7201 -0.2076
 5782SOL    HW224651   8.200   0.060   1.947  0.1035  0.3000 -1.5390
 5783SOL     OW24652   1.198   9.436   4.334  0.4844 -0.3157  0.1396
 5783SOL    HW124653   1.285   9.390   4.316  0.4824 -1.2748  2.4093
 5783SOL    HW224654   1.205   9.486   4.421  0.0859  3.0162 -1.6453
 5787SOL     OW24655   9.112   2.201   2.701  0.4862  0.0162 -0.1616
 5787SOL    HW124656   9.122   2.299   2.683  0.6915  0.2143  0.9453
 5787SOL    HW224657   9.019   2.173   2.682 -0.1357  0.8864  1.4737
 5788SOL     OW24658   8.327   1.233   2.214  0.4038 -0.5782 -0.8037
 5788SOL    HW124659   8.411   1.257   2.166  0.8045 -1.7080 -0.6637
 5788SOL    HW224660   8.296   1.143   2.185 -1.8496  0.6304 -2.3233
 5790SOL     OW24661   9.491   4.363   1.825 -0.4629  0.6455  0.2632
 5790SOL    HW124662   9.546   4.414   1.759 -1.5277  0.2386 -0.9534
 5790SOL    HW224663   9.545   4.286   1.860 -0.9430 -1.0152 -2.5099
 5792SOL     OW24664   3.196   5.265   4.025  0.3584 -0.0744 -0.0263
 5792SOL    HW124665   3.113   5.317   4.002 -0.4820 -0.5122  1.9150
 5792SOL    HW224666   3.239   5.306   4.106 -0.9578 -3.0465  2.2621
 5793SOL     OW24667   8.563   5.311   3.493 -0.6261  0.2490 -0.2750
 5793SOL    HW124668   8.581   5.233   3.554 -1.1054  3.1782  3.8322
 5793SOL    HW224669   8.465   5.315   3.471 -0.4647 -0.7739 -1.2015
 5794SOL     OW24670   9.235   7.422   2.583 -0.3247  0.2571  0.0996
 5794SOL    HW124671   9.237   7.519   2.560  0.4621  0.4203  0.8336
 5794SOL    HW224672   9.140   7.392   2.589 -0.6005  1.3628  1.4550
 5795SOL     OW24673   0.037   3.937   3.788 -0.0392  0.0190 -0.6022
 5795SOL    HW124674  -0.035   3.936   3.858  0.8022 -1.6932  0.2762
 5795SOL    HW224675   0.060   4.031   3.765 -2.3467  0.5855 -0.6783
 5796SOL     OW24676   5.854   7.669   1.990 -0.2896 -0.1717 -0.4917
 5796SOL    HW124677   5.868   7.615   1.907  0.2870 -1.2240  0.2718
 5796SOL    HW224678   5.942   7.707   2.020 -0.7558  1.5595 -1.2539
 5797SOL     OW24679   0.569   8.891   1.590 -0.0794 -0.3404 -0.5333
 5797SOL    HW124680   0.618   8.835   1.657 -1.4315 -0.9234 -0.0075
 5797SOL    HW224681   0.509   8.833   1.535  0.5709  0.2195 -1.8596
 5799SOL     OW24682   0.081   6.287   1.337  0.5268 -0.2881  0.1566
 5799SOL    HW124683   0.006   6.334   1.384 -0.2336 -1.5208  0.1895
 5799SOL    HW224684   0.126   6.225   1.401  1.9575  0.8428  0.2975
 5800SOL     OW24685   2.913   5.504   0.986  0.0904  0.2636  0.0205
 5800SOL    HW124686   2.836   5.467   0.935 -0.7602  1.2229  0.5917
 5800SOL    HW224687   2.880   5.543   1.072  1.2530  0.4201  0.4028
 5802SOL     OW24688   9.034   8.044   1.794 -0.1952 -0.2557 -0.1588
 5802SOL    HW124689   9.103   8.110   1.762 -0.7034  1.0134  1.3224
 5802SOL    HW224690   9.079   7.957   1.815  0.9868  0.6083  0.9597
 5803SOL     OW24691   9.588   9.080   4.262 -0.1336 -0.4422  0.1014
 5803SOL    HW124692   9.609   9.142   4.338 -0.3949  2.6578 -2.2696
 5803SOL    HW224693   9.521   9.012   4.292  0.5918  0.0030  2.9302
 5804SOL     OW24694   4.049   4.208   0.039 -0.3007 -0.2819  0.0520
 5804SOL    HW124695   4.140   4.179   0.067 -0.2193 -1.0460 -0.9782
 5804SOL    HW224696   3.990   4.217   0.120  0.5464 -0.2321  0.6721
 5805SOL     OW24697   4.907   3.688   2.594 -0.3490  0.4524 -0.0002
 5805SOL    HW124698   4.836   3.638   2.545 -1.8381  2.0565  0.4900
 5805SOL    HW224699   4.991   3.687   2.540 -1.4769  0.7406 -1.7870
 5807SOL     OW24700   4.641   0.415   0.137  0.4621  0.2591 -0.4945
 5807SOL    HW124701   4.730   0.460   0.149  0.3286  0.8846 -1.7978
 5807SOL    HW224702   4.623   0.402   0.039 -0.5860 -0.4672 -0.2141
 5808SOL     OW24703   3.465   1.817   0.943 -0.2207  0.1664 -0.2648
 5808SOL    HW124704   3.481   1.802   1.041  0.1862  1.5748 -0.1123
 5808SOL    HW224705   3.384   1.766   0.915  0.3557 -1.2208  0.5399
 5809SOL     OW24706   4.754   9.598   2.204  0.5185 -0.4722  0.2578
 5809SOL    HW124707   4.810   9.681   2.196 -1.8895  1.3798  1.7152
 5809SOL    HW224708   4.794   9.538   2.273  2.6250 -0.8604 -1.2435
 5810SOL     OW24709   7.351   9.712   0.525  0.3519 -0.2531  0.0992
 5810SOL    HW124710   7.350   9.614   0.502 -0.1278 -0.2381  0.0417
 5810SOL    HW224711   7.413   9.760   0.462  0.7048 -0.5427  0.2254
 5811SOL     OW24712   9.908   5.264   1.234  0.3046 -0.1926 -0.0136
 5811SOL    HW124713   9.927   5.167   1.222 -1.9696 -0.4516 -1.9273
 5811SOL    HW224714   9.863   5.278   1.323  1.3213 -0.7668  0.6018
 5812SOL     OW24715   3.618   1.570   0.568 -0.1409  0.6753 -0.2725
 5812SOL    HW124716   3.661   1.591   0.656 -1.4156  0.0186  0.5051
 5812SOL    HW224717   3.675   1.607   0.494  1.8374 -0.2934  0.7375
 5813SOL     OW24718   4.512   3.094   2.055  0.2206  0.3615  0.2696
 5813SOL    HW124719   4.538   3.025   1.987  1.7906  0.9510  0.2468
 5813SOL    HW224720   4.422   3.131   2.033  0.5032  0.1832 -1.2043
 5814SOL     OW24721   4.876   8.123   2.672  0.4711  0.2178 -0.2295
 5814SOL    HW124722   4.952   8.060   2.690  0.5887  0.0448 -1.2924
 5814SOL    HW224723   4.792   8.086   2.709  0.9525  0.5361  1.2025
 5815SOL     OW24724   9.251   5.364   1.564  0.6915  0.3588  0.2583
 5815SOL    HW124725   9.266   5.270   1.595 -0.0051 -0.2890 -1.2978
 5815SOL    HW224726   9.190   5.363   1.484  0.2126  2.1788  0.5881
 5816SOL     OW24727   3.907   8.287   0.180  0.2817  0.2210  0.1737
 5816SOL    HW124728   3.958   8.257   0.099 -1.5269  0.2390 -0.9874
 5816SOL    HW224729   3.813   8.253   0.175 -0.1890  1.2626  1.6728
 5818SOL     OW24730   9.444   6.728   3.042  0.3078 -0.0111 -0.2597
 5818SOL    HW124731   9.447   6.746   2.943  1.0253  0.3089 -0.1812
 5818SOL    HW224732   9.383   6.651   3.060 -0.2146  0.2480 -0.9099
 5819SOL     OW24733   6.782   0.759   0.515  0.0589  0.2848  0.1022
 5819SOL    HW124734   6.742   0.827   0.454  1.1066  2.0768  1.3450
 5819SOL    HW224735   6.809   0.678   0.463 -1.4768  0.6742 -1.3548
 5820SOL     OW24736   3.959   8.238   1.683 -0.2304  0.0139  0.2610
 5820SOL    HW124737   4.016   8.175   1.736 -1.9230 -0.5471  1.4681
 5820SOL    HW224738   3.874   8.256   1.733 -0.9931  1.0630 -1.3636
 5821SOL     OW24739   8.701   2.621   1.835  1.0738  0.3900 -0.0974
 5821SOL    HW124740   8.764   2.693   1.864  0.9604 -0.0968  1.3738
 5821SOL    HW224741   8.660   2.577   1.915 -1.1846  0.7217 -1.0267
 5823SOL     OW24742   8.608   3.345   1.351 -0.1786 -0.1176 -0.0936
 5823SOL    HW124743   8.572   3.407   1.420 -0.5635  0.7598 -1.0637
 5823SOL    HW224744   8.639   3.260   1.394  1.7299  1.3235  1.4469
 5824SOL     OW24745   6.531   0.225   3.047 -0.4346 -0.2198  0.4532
 5824SOL    HW124746   6.468   0.288   3.002 -1.6184 -1.3540  0.4822
 5824SOL    HW224747   6.480   0.165   3.109  0.7938 -0.5692  1.1401
 5826SOL     OW24748   0.887   8.071   2.022 -0.4788 -0.0103  0.2639
 5826SOL    HW124749   0.846   7.987   2.059 -2.5097  0.5520 -0.6484
 5826SOL    HW224750   0.906   8.135   2.097  0.0238 -0.8273  0.8412
 5827SOL     OW24751   1.559   2.282   2.829 -0.2337  0.1344 -0.2249
 5827SOL    HW124752   1.632   2.338   2.789 -0.4537  1.3481  1.0283
 5827SOL    HW224753   1.589   2.247   2.918 -0.7979 -0.1686 -0.1524
 5828SOL     OW24754   1.469   2.209   3.226 -0.1038  0.4327  0.1650
 5828SOL    HW124755   1.543   2.261   3.184  0.5171 -0.5019  0.0821
 5828SOL    HW224756   1.401   2.185   3.157  0.3862 -0.1905 -0.1075
 5829SOL     OW24757   8.944   8.986   2.162 -0.5831 -0.0520  0.0495
 5829SOL    HW124758   8.902   9.077   2.158  0.4591  0.4303 -0.0440
 5829SOL    HW224759   9.042   8.994   2.142 -0.5589 -1.2430 -0.3152
 5830SOL     OW24760   3.978   3.078   3.257  0.3179  0.0102 -0.0995
 5830SOL    HW124761   3.942   3.116   3.172  1.1950  0.8825 -0.0856
 5830SOL    HW224762   3.902   3.045   3.313 -0.1963 -1.8055 -1.7844
 5831SOL     OW24763   8.199   9.347   2.191  0.2574 -0.0271 -0.2491
 5831SOL    HW124764   8.281   9.301   2.227 -1.6492 -1.7485  2.0323
 5831SOL    HW224765   8.177   9.425   2.249 -0.6388 -0.5365  0.0974
 5834SOL     OW24766   9.277   0.385   1.161  0.1396 -0.0493  0.4590
 5834SOL    HW124767   9.210   0.460   1.158  0.5428  0.3731  1.8001
 5834SOL    HW224768   9.341   0.401   1.235 -0.1160 -2.0496  1.1386
 5835SOL     OW24769   5.711   0.920   2.479 -0.5834  0.0258 -0.4487
 5835SOL    HW124770   5.633   0.901   2.538 -2.3092  1.3287 -2.2176
 5835SOL    HW224771   5.682   0.980   2.404  1.9819  0.0315 -1.4945
 5836SOL     OW24772   0.359   9.355   2.983  0.3658 -0.0379  0.5621
 5836SOL    HW124773   0.345   9.453   2.966  2.4725 -0.0511 -1.4338
 5836SOL    HW224774   0.310   9.302   2.913 -0.0376 -0.4037  1.1140
 5837SOL     OW24775   9.680   4.575   2.575  0.1024  0.0502  0.4379
 5837SOL    HW124776   9.604   4.515   2.598 -0.6862  1.3042  1.1356
 5837SOL    HW224777   9.711   4.555   2.482  0.0287 -1.6021  0.7578
 5838SOL     OW24778   8.208   8.630   2.726  0.7726  0.0090  0.1075
 5838SOL    HW124779   8.126   8.644   2.781  0.1247 -1.6573 -0.4000
 5838SOL    HW224780   8.272   8.705   2.741  0.7118 -0.5395  3.2964
 5839SOL     OW24781   3.590   4.948   0.041 -0.4439  0.1337  0.2520
 5839SOL    HW124782   3.551   5.032   0.080 -2.1844 -0.3254 -0.4241
 5839SOL    HW224783   3.653   4.972  -0.032 -3.3225  0.8471 -2.0992
 5840SOL     OW24784   5.438   3.307   0.427 -0.3179  0.0966 -0.2151
 5840SOL    HW124785   5.529   3.348   0.430 -0.8136  1.1336  1.5172
 5840SOL    HW224786   5.376   3.366   0.376 -0.3437  0.0816 -0.2012
 5841SOL     OW24787   4.673   3.095   2.713 -0.3555  0.0513 -0.6118
 5841SOL    HW124788   4.697   3.060   2.803  0.0525  0.5205 -0.5374
 5841SOL    HW224789   4.576   3.075   2.694 -0.4122 -0.1393 -0.1167
 5842SOL     OW24790   9.924   0.555   0.080 -0.0196  0.1074 -0.0353
 5842SOL    HW124791   9.846   0.515   0.031 -1.9307  1.7779  1.5197
 5842SOL    HW224792   9.911   0.541   0.179  0.2887  2.6843  0.4093
 5844SOL     OW24793   9.502   3.043   1.114  0.2998 -0.0902 -0.2053
 5844SOL    HW124794   9.517   3.123   1.056  1.4443 -1.8710 -2.4372
 5844SOL    HW224795   9.532   2.960   1.066 -1.5577 -1.9722  1.7397
 5845SOL     OW24796   4.984   9.929   3.831  0.1919  0.5740  0.3828
 5845SOL    HW124797   4.894   9.971   3.841  0.1279  0.5842 -0.2220
 5845SOL    HW224798   5.048   9.994   3.791  0.5446  0.6578  1.0687
 5846SOL     OW24799   8.535   3.651   2.708  0.2487  0.1193  0.1414
 5846SOL    HW124800   8.485   3.666   2.793  1.3863  0.0940  0.8302
 5846SOL    HW224801   8.593   3.730   2.689 -0.2613  0.2675 -0.7888
 5847SOL     OW24802   9.102   7.114   0.693 -0.2113 -0.6352  0.1506
 5847SOL    HW124803   9.124   7.210   0.712  0.4357 -1.0058  1.3185
 5847SOL    HW224804   9.176   7.073   0.640 -0.0955 -0.7323  0.3926
 5849SOL     OW24805   2.456   6.281   4.291  0.0653  0.0123  0.0871
 5849SOL    HW124806   2.497   6.363   4.330  2.3119 -0.1202 -1.9045
 5849SOL    HW224807   2.414   6.303   4.203 -2.2843 -0.3172  1.0821
 5850SOL     OW24808   2.558   7.676   2.019 -0.2321  0.1478 -0.1401
 5850SOL    HW124809   2.558   7.766   2.063 -0.5053  0.2791 -0.4041
 5850SOL    HW224810   2.473   7.628   2.043 -0.8713  0.6447 -1.3814
 5853SOL     OW24811   9.171   7.962   3.224  0.0732 -0.0470  0.0566
 5853SOL    HW124812   9.256   7.916   3.249 -0.2141 -0.7097 -0.1620
 5853SOL    HW224813   9.183   8.061   3.230  0.8304 -0.1403  0.1125
 5854SOL     OW24814   3.330   8.510   0.941 -0.4511  0.2359 -0.6699
 5854SOL    HW124815   3.285   8.552   1.021 -0.0886  0.7437 -0.7310
 5854SOL    HW224816   3.359   8.582   0.878 -0.5044 -0.1533 -1.1371
 5855SOL     OW24817   4.151   3.471   2.084 -0.1838 -0.6845  0.0256
 5855SOL    HW124818   4.068   3.487   2.031  0.3516 -1.5382 -1.0892
 5855SOL    HW224819   4.135   3.495   2.180 -0.6482  2.6086 -0.8024
 5856SOL     OW24820   0.483   3.444   1.227 -0.2498 -0.7900  1.0106
 5856SOL    HW124821   0.465   3.412   1.134  0.8213 -0.7372  0.7849
 5856SOL    HW224822   0.576   3.420   1.254  0.0352  0.7067  1.4302
 5858SOL     OW24823   8.520   1.998   2.360 -0.0613  0.2679  0.0732
 5858SOL    HW124824   8.424   2.027   2.357 -0.2187 -0.3697 -1.5416
 5858SOL    HW224825   8.571   2.043   2.286  0.3870 -1.0876 -0.4576
 5860SOL     OW24826   4.408   0.752   2.426  0.1762  0.7232 -0.0911
 5860SOL    HW124827   4.482   0.820   2.420 -0.0065  0.8200 -1.2842
 5860SOL    HW224828   4.416   0.703   2.513 -0.1718  2.8119  1.1522
 5861SOL     OW24829   6.201   0.221   3.698 -0.2097  0.0801 -0.4672
 5861SOL    HW124830   6.152   0.147   3.744 -0.6002  0.0636 -0.9071
 5861SOL    HW224831   6.193   0.210   3.599  0.0310  0.5126 -0.5358
 5862SOL     OW24832   8.566   2.837   0.936  0.0851 -0.2119  0.2567
 5862SOL    HW124833   8.505   2.909   0.972  1.0680  0.9936 -0.4472
 5862SOL    HW224834   8.647   2.831   0.994 -0.4462 -1.4404  0.8778
 5863SOL     OW24835   1.057   6.697   1.533 -0.4984 -0.3391 -0.1705
 5863SOL    HW124836   1.021   6.719   1.443 -0.9096 -1.0250 -0.1739
 5863SOL    HW224837   1.050   6.599   1.549 -0.1718 -0.2573  0.4974
 5864SOL     OW24838   9.536   6.009   3.582  0.6237 -0.1596  0.3142
 5864SOL    HW124839   9.619   5.954   3.574 -0.6078 -1.9912 -0.1102
 5864SOL    HW224840   9.517   6.054   3.494  0.8206 -0.2449  0.2286
 5865SOL     OW24841   5.121   7.487   1.676  0.2925 -0.1676 -0.1658
 5865SOL    HW124842   5.025   7.507   1.657  0.3531 -0.0545 -0.3504
 5865SOL    HW224843   5.146   7.398   1.636  0.3265 -0.0918 -0.3108
 5866SOL     OW24844   4.936   0.357   3.487 -0.0943  0.5040 -0.3062
 5866SOL    HW124845   4.846   0.394   3.507 -0.1585 -0.0304  0.4290
 5866SOL    HW224846   4.999   0.382   3.560  0.1761  0.2620 -0.4542
 5867SOL     OW24847   2.122   8.945   1.917  0.3721  0.0190  0.2232
 5867SOL    HW124848   2.186   9.017   1.888  1.6016 -0.8530  0.7322
 5867SOL    HW224849   2.172   8.861   1.934 -1.2382 -1.3454 -1.6249
 5869SOL     OW24850   9.987   1.044   1.021 -0.2902  0.5476  0.2750
 5869SOL    HW124851   9.947   0.953   1.022 -0.5013  0.6312 -0.1527
 5869SOL    HW224852  10.077   1.042   1.064 -0.1531  0.0714 -0.0298
 5870SOL     OW24853   3.334   1.817   4.365  0.2677  0.6316  0.1695
 5870SOL    HW124854   3.419   1.790   4.320 -0.8908 -2.8196 -0.0465
 5870SOL    HW224855   3.347   1.818   4.464  0.7070  0.6871  0.1125
 5871SOL     OW24856   5.472   0.534   0.522 -0.6620  0.2772  0.1385
 5871SOL    HW124857   5.538   0.497   0.457  0.8424  1.8188  0.7662
 5871SOL    HW224858   5.397   0.577   0.472  0.3658  1.2470 -0.5780
 5873SOL     OW24859   6.301   0.563   3.245  0.1847 -0.2694 -0.0115
 5873SOL    HW124860   6.365   0.575   3.320  0.7262 -0.9983 -0.3477
 5873SOL    HW224861   6.348   0.520   3.168 -0.1716  1.1459 -1.0420
 5874SOL     OW24862   8.080   1.125   3.717  0.0527  0.3812  0.1830
 5874SOL    HW124863   8.089   1.027   3.702 -0.2201  0.5079 -0.9099
 5874SOL    HW224864   8.021   1.164   3.646 -1.2976  1.0534  1.6467
 5875SOL     OW24865   0.014   3.456   3.500 -0.1162  0.2765  0.2295
 5875SOL    HW124866  -0.032   3.541   3.476  0.4014  0.6798  0.6523
 5875SOL    HW224867  -0.053   3.381   3.503 -0.7427  0.8560  0.8234
 5876SOL     OW24868   7.179   9.315   1.149  0.5230  0.3388  0.0723
 5876SOL    HW124869   7.157   9.301   1.246  0.1845  0.3338 -0.0019
 5876SOL    HW224870   7.126   9.251   1.094 -0.3078  1.2366 -0.2022
 5878SOL     OW24871   3.335   1.148   1.402  0.1787  0.8370 -0.0348
 5878SOL    HW124872   3.363   1.072   1.344 -0.8091  0.2956  0.2038
 5878SOL    HW224873   3.236   1.160   1.397  0.3594  2.3322 -0.3480
 5879SOL     OW24874   0.767   7.963   1.809  0.5068 -0.1347 -0.7105
 5879SOL    HW124875   0.806   8.019   1.882  1.6568 -0.9769 -0.6613
 5879SOL    HW224876   0.829   7.887   1.789 -0.2789 -0.4794 -1.8735
 5881SOL     OW24877   1.484   3.080   1.651  0.0217  0.9264 -0.1961
 5881SOL    HW124878   1.479   3.179   1.665  2.5521  1.2657 -1.2356
 5881SOL    HW224879   1.572   3.047   1.686 -0.0554 -0.6355 -1.4492
 5882SOL     OW24880   7.636   6.867   4.244 -0.0610 -0.1918  0.0701
 5882SOL    HW124881   7.646   6.849   4.342  0.4431 -1.9923 -0.2993
 5882SOL    HW224882   7.726   6.864   4.201 -0.4323 -0.7824 -0.6732
 5883SOL     OW24883   8.583   7.578   0.033 -0.0172 -0.0614 -0.4811
 5883SOL    HW124884   8.495   7.595   0.077  0.0411 -1.8626  0.3702
 5883SOL    HW224885   8.655   7.630   0.081 -0.2068 -0.7345  0.5514
 5884SOL     OW24886   2.248   3.312   3.695  0.2356 -0.3950 -0.2945
 5884SOL    HW124887   2.169   3.367   3.720  0.9981  0.6044 -0.0073
 5884SOL    HW224888   2.222   3.216   3.685 -0.7101 -0.2948  1.2084
 5885SOL     OW24889   9.806   1.909   0.678  0.2995  0.2907 -0.1926
 5885SOL    HW124890   9.861   1.973   0.624  0.1350  0.1193 -0.5660
 5885SOL    HW224891   9.849   1.819   0.677 -0.1451  0.0799 -0.7415
 5886SOL     OW24892   0.386   6.737   3.034 -0.0016  0.5470  0.4906
 5886SOL    HW124893   0.382   6.770   3.129 -0.4954  1.7819  0.0419
 5886SOL    HW224894   0.444   6.656   3.030 -0.5292  0.0797  1.9722
 5887SOL     OW24895   0.381   3.153   4.424  0.1121  0.0232  0.3229
 5887SOL    HW124896   0.441   3.095   4.480 -1.5834 -0.0846  2.1159
 5887SOL    HW224897   0.378   3.118   4.331 -0.6078 -2.6019  1.2853
 5888SOL     OW24898   5.108   2.696   0.245  0.0900 -0.2973 -0.2937
 5888SOL    HW124899   5.090   2.775   0.186  0.6647  0.6020  0.7111
 5888SOL    HW224900   5.072   2.613   0.202 -0.1230  0.4433 -1.5732
 5890SOL     OW24901   4.959   2.654   1.555  0.3075  0.3431  0.0067
 5890SOL    HW124902   4.885   2.682   1.494  1.5138  2.1332 -0.6767
 5890SOL    HW224903   5.040   2.709   1.536  1.7576 -1.4281  0.8958
 5891SOL     OW24904   7.350   6.714   2.993  0.1874 -0.0810  0.1233
 5891SOL    HW124905   7.391   6.670   2.913  1.2485 -0.8818  1.1050
 5891SOL    HW224906   7.410   6.704   3.072 -0.5934  1.2016  0.9003
 5893SOL     OW24907   3.105   5.293   4.399  0.2780  0.6829  0.0011
 5893SOL    HW124908   3.185   5.324   4.348 -0.1045  0.4379 -0.7556
 5893SOL    HW224909   3.070   5.368   4.454  0.4206  1.0869 -0.4460
 5895SOL     OW24910   9.393   7.963   2.516 -0.4943  0.1944  0.3965
 5895SOL    HW124911   9.374   7.884   2.574 -1.3674 -0.4053 -0.6839
 5895SOL    HW224912   9.388   8.047   2.571  3.1113 -0.6338  2.1438
 5896SOL     OW24913   0.215   2.660   1.155  0.1110 -0.0825  0.3015
 5896SOL    HW124914   0.256   2.689   1.241 -0.1682 -0.7826  0.6805
 5896SOL    HW224915   0.224   2.560   1.146  0.1732 -0.0079 -0.4968
 5897SOL     OW24916   8.006   9.203   0.632  0.1318  0.4654  0.2844
 5897SOL    HW124917   8.003   9.303   0.622 -0.5974  0.3556 -0.6945
 5897SOL    HW224918   7.922   9.164   0.594  0.0729 -0.4679  1.3828
 5899SOL     OW24919   3.944   9.802   4.382 -0.0675  0.7543 -0.0413
 5899SOL    HW124920   3.851   9.808   4.418 -0.3694  0.5335 -0.7590
 5899SOL    HW224921   3.996   9.883   4.408 -0.3721  0.7365  0.6208
 5900SOL     OW24922   4.101   9.634   0.573 -0.5327 -0.3572 -0.3936
 5900SOL    HW124923   4.121   9.706   0.506  0.6132 -0.1271  0.1765
 5900SOL    HW224924   4.041   9.671   0.644 -0.3964 -0.1174 -0.4007
 5901SOL     OW24925   8.667   8.352   0.958 -0.1325  0.2799  0.2723
 5901SOL    HW124926   8.598   8.307   1.015 -1.6447  0.6842 -1.2065
 5901SOL    HW224927   8.719   8.283   0.908 -0.9170  0.0460 -0.2415
 5902SOL     OW24928   8.244   3.913   1.965 -0.0899  0.1939 -0.1027
 5902SOL    HW124929   8.247   3.834   2.027 -0.4245 -0.0331 -0.3689
 5902SOL    HW224930   8.227   3.996   2.017 -0.3579  0.0051  0.1145
 5903SOL     OW24931   0.404   5.832   0.829  0.0969  0.1391 -0.1439
 5903SOL    HW124932   0.366   5.918   0.862  2.1507  1.2152 -0.4986
 5903SOL    HW224933   0.492   5.849   0.786  1.1748 -2.3287  0.9880
 5904SOL     OW24934   0.572   9.852   0.195  0.3717  0.2875  0.3225
 5904SOL    HW124935   0.664   9.881   0.221  0.9057 -0.0701 -1.1043
 5904SOL    HW224936   0.515   9.932   0.175  0.1927  0.5313  1.7481
 5905SOL     OW24937   5.624   9.014   3.927 -0.2516 -0.2017 -0.4493
 5905SOL    HW124938   5.652   9.071   4.005 -0.5934  1.4028 -1.4798
 5905SOL    HW224939   5.627   9.068   3.844 -3.5570 -0.8374 -1.0377
 5906SOL     OW24940   6.361   9.053   3.216 -0.2764 -0.5473 -0.2148
 5906SOL    HW124941   6.379   8.961   3.180 -0.0305  0.1785 -2.0132
 5906SOL    HW224942   6.430   9.076   3.284  2.2547 -0.0353 -2.8714
 5908SOL     OW24943   9.973   0.502   1.553 -0.1242  0.2102 -0.2752
 5908SOL    HW124944   9.997   0.599   1.547 -0.1918  0.3286  1.1632
 5908SOL    HW224945  10.028   0.459   1.624 -1.7545 -0.2776  0.7110
 5909SOL     OW24946   0.866   8.997   3.625  0.3855  0.3800  0.0772
 5909SOL    HW124947   0.964   8.976   3.632  0.3980  0.2210 -0.6181
 5909SOL    HW224948   0.838   9.049   3.706  0.9777  0.1679  0.4242
 5910SOL     OW24949   7.312   8.890   3.714  0.9156 -0.0804 -0.0907
 5910SOL    HW124950   7.347   8.821   3.776  1.2232  1.9836  2.1132
 5910SOL    HW224951   7.384   8.956   3.693  0.7475 -0.6074 -2.4965
 5911SOL     OW24952   6.339   6.972   3.512 -0.0254  0.3208  0.1973
 5911SOL    HW124953   6.405   6.912   3.467  0.6697  0.3578  1.1476
 5911SOL    HW224954   6.248   6.957   3.472  0.4279 -0.2236 -0.6479
 5912SOL     OW24955   2.456   3.772   1.871 -0.2738  0.1018  0.1697
 5912SOL    HW124956   2.460   3.872   1.865 -1.3874  0.0490 -1.5202
 5912SOL    HW224957   2.442   3.745   1.967 -1.5217  1.6184  0.4317
 5913SOL     OW24958   0.403   7.067   0.186  0.2786 -0.1423  0.0849
 5913SOL    HW124959   0.336   7.007   0.140  0.3287  0.7268 -1.1398
 5913SOL    HW224960   0.362   7.156   0.202  1.3506  0.6088 -1.2717
 5914SOL     OW24961   6.863   1.586   3.827 -0.6707  0.3304 -0.3901
 5914SOL    HW124962   6.951   1.634   3.831 -0.5686  0.0865  0.3845
 5914SOL    HW224963   6.839   1.568   3.732  0.2969  0.0688 -0.5846
 5915SOL     OW24964   8.762   4.522   1.277  0.1614  0.2417  0.2147
 5915SOL    HW124965   8.838   4.542   1.338  0.8098 -0.3451 -0.3939
 5915SOL    HW224966   8.726   4.608   1.240 -0.0461  0.5780  1.1822
 5916SOL     OW24967   1.181   9.001   1.221 -0.1734 -0.4193  0.4356
 5916SOL    HW124968   1.182   8.924   1.285 -0.4433 -0.7127  0.0884
 5916SOL    HW224969   1.235   8.977   1.140  4.3296  1.7409  2.6268
 5917SOL     OW24970   0.567   0.441   2.344 -0.0295 -0.7372 -0.2602
 5917SOL    HW124971   0.616   0.509   2.399 -0.4771  0.1258 -0.9324
 5917SOL    HW224972   0.569   0.467   2.248  1.8203 -2.8982 -0.8432
 5919SOL     OW24973   4.521   6.407   1.038 -0.3533 -0.2243  0.1008
 5919SOL    HW124974   4.606   6.416   1.090  0.1551 -1.6637 -0.4537
 5919SOL    HW224975   4.453   6.359   1.093  0.7990 -3.4662 -1.1772
 5920SOL     OW24976   3.052   6.512   0.793 -0.6987 -0.1202  0.2554
 5920SOL    HW124977   3.036   6.451   0.871 -1.3061 -1.0619 -0.5986
 5920SOL    HW224978   2.994   6.485   0.717  0.2040  0.5374 -0.6811
 5921SOL     OW24979   2.831   8.104   3.439 -0.1546 -0.9393 -0.0673
 5921SOL    HW124980   2.783   8.192   3.443  2.0325  0.3864 -1.8393
 5921SOL    HW224981   2.818   8.064   3.348  1.9619 -0.5936 -0.5493
 5922SOL     OW24982   1.746   1.908   2.840 -0.1460  0.1573 -0.0051
 5922SOL    HW124983   1.816   1.979   2.849  0.1753 -0.0544 -0.7327
 5922SOL    HW224984   1.657   1.951   2.825 -0.2619  0.4382  1.4576
 5923SOL     OW24985   0.814   3.122   0.125 -0.0297  0.0074 -0.3390
 5923SOL    HW124986   0.859   3.154   0.208 -0.0881  2.4359 -1.2216
 5923SOL    HW224987   0.749   3.049   0.149  3.0242 -2.3634  1.1637
 5924SOL     OW24988   5.773   0.141   1.979 -0.1863  0.5143 -0.4414
 5924SOL    HW124989   5.764   0.236   1.946 -0.9417  0.5921 -0.0372
 5924SOL    HW224990   5.780   0.141   2.079 -0.7894  0.1158 -0.3927
 5925SOL     OW24991   3.734   5.350   2.292  0.0498 -0.4673 -0.0262
 5925SOL    HW124992   3.823   5.305   2.290 -0.0391 -0.7943  2.1518
 5925SOL    HW224993   3.741   5.437   2.340 -0.9573 -0.8418  0.8183
 5926SOL     OW24994   7.144   1.272   3.014  0.6652 -0.2825  0.1383
 5926SOL    HW124995   7.120   1.254   2.918  0.0044 -2.8913  0.7406
 5926SOL    HW224996   7.168   1.186   3.059 -0.6502  0.6500  2.7574
 5927SOL     OW24997   3.438   3.920   0.084 -0.6522 -0.2001  0.4221
 5927SOL    HW124998   3.418   4.004   0.134  0.4663  0.3975 -0.1217
 5927SOL    HW224999   3.492   3.942   0.003  1.2380 -1.6492  1.2588
 5928SOL     OW25000   2.508   7.360   1.862 -0.0966  0.0661  0.4412
 5928SOL    HW125001   2.492   7.413   1.779 -0.0593  0.2323  0.5394
 5928SOL    HW225002   2.484   7.416   1.942  0.8669  0.2762  0.5862
 5929SOL     OW25003   3.693   8.247   1.790  0.2021 -0.6827  0.3056
 5929SOL    HW125004   3.647   8.307   1.856  1.7728 -1.9696  2.6564
 5929SOL    HW225005   3.656   8.155   1.798  0.0885 -0.7532 -0.9585
 5930SOL     OW25006   3.704   4.331   3.630  0.1524  0.9189  0.1838
 5930SOL    HW125007   3.720   4.386   3.711 -1.9020 -1.7083  2.4773
 5930SOL    HW225008   3.685   4.237   3.657 -0.9855  0.0668 -3.3173
 5932SOL     OW25009   3.535   7.445   2.295 -0.5071 -0.5680  0.0982
 5932SOL    HW125010   3.564   7.359   2.336  2.1473 -0.7582 -2.0650
 5932SOL    HW225011   3.461   7.428   2.230  0.2322 -1.2681 -0.5621
 5933SOL     OW25012   7.487   7.414   3.207 -0.2778 -0.4458 -0.0552
 5933SOL    HW125013   7.392   7.443   3.215  0.1706  0.9087  0.4043
 5933SOL    HW225014   7.497   7.356   3.126 -0.8745  2.0283 -1.9620
 5934SOL     OW25015   3.225   2.078   3.060  0.5119 -0.0707  0.0713
 5934SOL    HW125016   3.269   2.167   3.071 -0.5826  0.3866  0.8509
 5934SOL    HW225017   3.273   2.009   3.114  0.8129  0.2418  0.2009
 5936SOL     OW25018   4.128   2.183   4.331  0.2097 -0.5433  0.0213
 5936SOL    HW125019   4.125   2.226   4.421 -0.4399  1.4757 -0.9333
 5936SOL    HW225020   4.184   2.101   4.335  2.7938  1.2411  1.5504
 5937SOL     OW25021   7.335   9.325   4.180 -0.1557 -0.8236  0.0507
 5937SOL    HW125022   7.347   9.226   4.172 -1.5148 -0.8915 -1.4591
 5937SOL    HW225023   7.256   9.344   4.238  0.3700 -0.6034  0.7020
 5938SOL     OW25024   4.855   1.513   3.200  0.1373  0.7093 -0.3022
 5938SOL    HW125025   4.906   1.545   3.280  1.3484 -0.6979 -0.4863
 5938SOL    HW225026   4.889   1.559   3.118  0.4964  0.4585 -0.2986
 5939SOL     OW25027   3.169   9.525   1.259 -0.0191  0.7248 -0.3661
 5939SOL    HW125028   3.264   9.557   1.252  0.3726 -0.7265 -1.9985
 5939SOL    HW225029   3.114   9.568   1.187  0.0789 -0.7126 -1.3242
 5940SOL     OW25030   2.448   3.540   1.296 -0.2831  0.0972  0.5044
 5940SOL    HW125031   2.447   3.495   1.385  0.1532 -0.8362  0.0517
 5940SOL    HW225032   2.421   3.474   1.226 -1.5084  1.0743  0.0513
 5941SOL     OW25033   6.290   8.138   2.894  0.2460  0.6104 -0.1571
 5941SOL    HW125034   6.252   8.056   2.937  2.3538 -0.5646 -0.4732
 5941SOL    HW225035   6.371   8.113   2.841  0.0194  2.6659 -1.5360
 5943SOL     OW25036   6.459   8.189   2.206  0.7155 -0.3062 -0.0494
 5943SOL    HW125037   6.537   8.133   2.236  1.1591 -1.6112 -3.4516
 5943SOL    HW225038   6.485   8.241   2.125 -1.5992  0.1583 -0.5256
 5944SOL     OW25039   2.846   9.405   2.266 -0.7856 -0.2454  0.1385
 5944SOL    HW125040   2.864   9.325   2.322  1.2422  0.6861  0.8531
 5944SOL    HW225041   2.748   9.428   2.272 -0.7141 -0.4820  2.8533
 5946SOL     OW25042   8.492   0.362   2.147  0.1502  0.2556 -0.1105
 5946SOL    HW125043   8.464   0.397   2.237 -0.0449 -0.1566 -0.0088
 5946SOL    HW225044   8.447   0.274   2.131  0.1437  0.3567 -0.6368
 5947SOL     OW25045   9.106   3.946   2.836 -0.2677 -0.4972 -0.1014
 5947SOL    HW125046   9.025   4.004   2.826  0.5135  0.8101  1.0205
 5947SOL    HW225047   9.173   3.971   2.767 -0.4202 -0.8893 -0.3892
 5949SOL     OW25048   8.515   5.403   4.198  0.0369  0.1660  0.3422
 5949SOL    HW125049   8.450   5.383   4.124  0.8414  1.4506 -0.7232
 5949SOL    HW225050   8.479   5.476   4.256 -0.6153 -0.8721  1.2832
 5950SOL     OW25051   2.954   2.712   3.875 -0.0228  0.0735 -0.3533
 5950SOL    HW125052   2.856   2.721   3.856 -0.0041 -3.0392 -2.2019
 5950SOL    HW225053   2.969   2.632   3.933  1.2095  2.3169  2.5880
 5951SOL     OW25054   5.653   9.840   2.717  0.1249 -0.2006  0.1241
 5951SOL    HW125055   5.666   9.745   2.690 -1.8768  0.4311 -3.3010
 5951SOL    HW225056   5.627   9.843   2.814  1.4728 -3.0065  0.6274
 5953SOL     OW25057   8.265   9.710   0.697  1.1120 -0.5930  0.2975
 5953SOL    HW125058   8.306   9.744   0.782  0.7848 -1.2430  0.7132
 5953SOL    HW225059   8.190   9.771   0.670  0.5306 -0.9758  1.0387
 5954SOL     OW25060   3.133   4.076   2.508 -0.1894 -0.4298 -0.4970
 5954SOL    HW125061   3.127   4.095   2.410  0.9581  1.8987 -0.1423
 5954SOL    HW225062   3.061   4.011   2.533 -2.6082  1.4402 -2.2981
 5955SOL     OW25063   6.655   0.579   0.869 -0.2126  0.2460 -0.0418
 5955SOL    HW125064   6.658   0.491   0.822 -0.2872  0.7994 -1.1021
 5955SOL    HW225065   6.616   0.567   0.960 -2.5704 -0.4374 -1.0905
 5956SOL     OW25066   0.559   0.860   1.538  0.2369  0.5387  0.6585
 5956SOL    HW125067   0.467   0.854   1.499 -0.5786 -1.9818  2.8205
 5956SOL    HW225068   0.626   0.868   1.464 -1.4598 -0.8788 -1.0936
 5957SOL     OW25069   8.998   7.762   3.165 -0.4317  0.1423  0.0248
 5957SOL    HW125070   9.034   7.679   3.207  1.0321  1.1526  0.8339
 5957SOL    HW225071   9.059   7.839   3.187 -2.1630  1.5696 -0.0567
 5958SOL     OW25072   9.551   1.248   3.435  0.2557 -0.2865 -0.0336
 5958SOL    HW125073   9.600   1.245   3.523  0.3817  0.2614 -0.0826
 5958SOL    HW225074   9.489   1.170   3.429  1.1172 -0.9841  0.0352
 5959SOL     OW25075   2.216   9.572   2.205  0.2850 -0.2812 -0.1280
 5959SOL    HW125076   2.274   9.652   2.186  0.7412 -0.7492 -0.7351
 5959SOL    HW225077   2.152   9.558   2.130  0.7696 -0.9752 -0.4221
 5960SOL     OW25078   1.982   5.456   1.640 -0.4038 -0.1790  0.3100
 5960SOL    HW125079   2.032   5.371   1.622  0.1608  0.0214  0.9303
 5960SOL    HW225080   2.021   5.530   1.585 -1.7435 -0.5933 -1.2419
 5961SOL     OW25081   5.282   6.635   2.521  0.1936  0.2958  0.2389
 5961SOL    HW125082   5.204   6.626   2.583 -1.2468  1.1700 -1.3928
 5961SOL    HW225083   5.299   6.732   2.503  1.4955  0.0986  0.3557
 5963SOL     OW25084   2.297   0.547   2.988  0.4345  0.1628  0.3456
 5963SOL    HW125085   2.383   0.501   3.007  1.0369  0.5660 -1.3383
 5963SOL    HW225086   2.290   0.629   3.044  1.1057  0.0825  0.5477
 5964SOL     OW25087   4.754   4.036   1.840 -0.1679 -0.1681 -0.1417
 5964SOL    HW125088   4.678   3.976   1.816  0.0453 -0.0695 -1.0762
 5964SOL    HW225089   4.810   3.992   1.910 -0.9616 -0.3283  0.3970
 5965SOL     OW25090   3.264   1.890   2.735  0.3401  0.1926 -0.5273
 5965SOL    HW125091   3.176   1.917   2.775 -0.3317 -0.6793 -1.3773
 5965SOL    HW225092   3.256   1.890   2.635  1.6153  1.1091 -0.6268
 5966SOL     OW25093   3.751   6.449   3.603 -0.1131  0.1559 -0.6637
 5966SOL    HW125094   3.687   6.496   3.542  0.9952  1.3339 -0.9469
 5966SOL    HW225095   3.719   6.457   3.697 -1.0250 -0.3300 -0.9280
 5967SOL     OW25096   0.437   3.119   2.103  0.4047  0.0029  0.1454
 5967SOL    HW125097   0.346   3.113   2.062 -0.0821 -0.1772  1.2431
 5967SOL    HW225098   0.506   3.128   2.031 -0.2898 -1.9982 -0.8109
 5968SOL     OW25099   4.490   8.283   1.299  0.0010  0.2180 -0.1579
 5968SOL    HW125100   4.427   8.209   1.323  1.8839 -1.8737 -1.4664
 5968SOL    HW225101   4.493   8.293   1.199  2.2819 -0.2067 -0.1406
 5969SOL     OW25102   5.499   0.879   3.970 -0.1115  0.4690  0.0113
 5969SOL    HW125103   5.474   0.937   3.893  0.1811  0.6125  0.0221
 5969SOL    HW225104   5.563   0.928   4.029 -0.4412  0.4125  0.4184
 5970SOL     OW25105   9.658   2.062   4.001  0.4325  0.1391  0.0083
 5970SOL    HW125106   9.636   2.158   4.017 -1.7561  0.0572 -2.2007
 5970SOL    HW225107   9.573   2.010   3.989  1.6381 -1.2458 -3.2082
 5971SOL     OW25108   3.016   9.516   4.380  0.3549  0.6112 -0.4431
 5971SOL    HW125109   2.949   9.550   4.447 -2.3491 -0.0664 -2.7118
 5971SOL    HW225110   3.084   9.460   4.426 -0.8576  0.9938  1.8871
 5972SOL     OW25111   3.554   7.315   0.829 -0.1057 -0.3783 -0.1977
 5972SOL    HW125112   3.536   7.220   0.802 -0.1688 -0.6219  0.6796
 5972SOL    HW225113   3.626   7.354   0.771  0.7812 -1.3511  0.2434
 5973SOL     OW25114   1.390   9.751   2.655 -0.3541  0.1018 -0.4870
 5973SOL    HW125115   1.395   9.850   2.673  1.1870  0.3094 -1.9766
 5973SOL    HW225116   1.303   9.730   2.611 -1.7880  0.3916  2.0882
 5974SOL     OW25117   9.011   0.810   3.891 -0.5890 -0.1421 -0.6984
 5974SOL    HW125118   8.965   0.731   3.851 -3.0394  0.7944  0.1548
 5974SOL    HW225119   9.032   0.792   3.987 -1.1380  0.2335 -0.5057
 5975SOL     OW25120   4.455   7.513   2.516  0.1170  0.3377  0.9375
 5975SOL    HW125121   4.383   7.477   2.575 -0.6451  1.6529  0.8120
 5975SOL    HW225122   4.529   7.551   2.573  0.3440 -0.2619  1.0526
 5976SOL     OW25123   9.693   6.543   4.011 -0.4071  0.3806  0.1966
 5976SOL    HW125124   9.613   6.531   3.952  0.9311  1.4963 -1.8746
 5976SOL    HW225125   9.731   6.635   3.999 -0.1876  0.6982  2.9224
 5977SOL     OW25126   7.713   3.340   0.133 -0.1688  0.4640  0.3683
 5977SOL    HW125127   7.648   3.349   0.209 -0.6890  0.0780 -0.0243
 5977SOL    HW225128   7.806   3.351   0.167 -0.5363  3.3990  0.5620
 5978SOL     OW25129   4.348   7.041   3.252 -0.3941  0.2344 -0.1801
 5978SOL    HW125130   4.280   7.010   3.319 -0.2849 -0.1545 -0.2528
 5978SOL    HW225131   4.422   6.975   3.246 -1.8667 -1.2244 -2.8738
 5979SOL     OW25132   2.786   0.348   4.301 -0.3524  0.2302 -0.5280
 5979SOL    HW125133   2.754   0.427   4.352  1.8520  0.4388  0.5910
 5979SOL    HW225134   2.765   0.360   4.204 -3.1115  0.5712  0.0664
 5980SOL     OW25135   1.569   7.858   0.270 -0.3476  0.1527 -0.0486
 5980SOL    HW125136   1.516   7.890   0.192 -2.2167 -0.8627  0.7712
 5980SOL    HW225137   1.637   7.927   0.295  0.6723  0.2717 -2.8902
 5981SOL     OW25138   3.209   3.075   0.723 -0.2580 -0.1479  0.0569
 5981SOL    HW125139   3.257   3.138   0.784 -0.2023 -0.7094  0.5931
 5981SOL    HW225140   3.126   3.041   0.768  0.4048 -1.4735  0.2714
 5983SOL     OW25141   8.469   4.574   2.567 -0.3559 -0.2206  0.2817
 5983SOL    HW125142   8.563   4.608   2.566 -0.5111  0.2692  1.5228
 5983SOL    HW225143   8.419   4.617   2.642 -1.5722 -0.4822 -0.3688
 5984SOL     OW25144   3.802   6.924   1.757 -0.3292 -0.4466 -0.0118
 5984SOL    HW125145   3.841   6.942   1.666  0.3875 -1.1750  0.1436
 5984SOL    HW225146   3.830   6.833   1.787  0.3814  0.2258  1.4184
 5985SOL     OW25147   5.886   7.225   2.007  0.1680  0.6167  0.0309
 5985SOL    HW125148   5.863   7.145   2.063  1.0322 -0.0812 -0.5914
 5985SOL    HW225149   5.831   7.223   1.924  1.3592 -0.2401 -0.7556
 5986SOL     OW25150   4.966   7.253   2.651 -0.3131  0.2474  0.5096
 5986SOL    HW125151   4.919   7.279   2.567 -1.0628 -0.3914  0.7288
 5986SOL    HW225152   5.013   7.333   2.689 -0.0339  0.5572 -0.4728
 5987SOL     OW25153   3.833   1.748   1.178  0.1475  0.2891  0.1303
 5987SOL    HW125154   3.930   1.755   1.156  0.0884  2.5840  0.4236
 5987SOL    HW225155   3.780   1.736   1.094  0.4916  1.7043 -0.3062
 5989SOL     OW25156   7.171   2.342   3.045  0.2948 -0.1972 -0.4347
 5989SOL    HW125157   7.242   2.392   2.996 -0.9340  0.9397 -1.1183
 5989SOL    HW225158   7.116   2.291   2.979  0.0112 -0.4635  0.0053
 5990SOL     OW25159   4.830   4.135   1.125  0.3033  0.0641  0.1668
 5990SOL    HW125160   4.865   4.203   1.061 -1.4456 -0.2715 -1.1870
 5990SOL    HW225161   4.901   4.068   1.145  0.8400  0.1183 -1.5035
 5992SOL     OW25162   3.438   9.573   1.215 -0.0062  0.5977  0.2973
 5992SOL    HW125163   3.505   9.508   1.178 -0.2276 -0.3007  1.4333
 5992SOL    HW225164   3.423   9.646   1.149  0.3265 -0.4513 -0.9761
 5993SOL     OW25165   8.334   2.052   1.227  0.3601  0.3246  0.0148
 5993SOL    HW125166   8.307   1.990   1.301 -0.8243  1.7210  0.7542
 5993SOL    HW225167   8.285   2.027   1.144  3.8233 -3.1157 -1.1620
 5994SOL     OW25168   7.974   5.889   4.076 -0.3514  0.2243 -0.5313
 5994SOL    HW125169   7.984   5.898   3.977 -1.7216 -0.1830 -0.7109
 5994SOL    HW225170   8.005   5.798   4.104 -0.3343  0.1962 -0.6396
 5995SOL     OW25171   0.655   5.409   4.205  0.5776  0.1249  0.3858
 5995SOL    HW125172   0.586   5.482   4.197  0.3122 -0.2081 -0.3990
 5995SOL    HW225173   0.643   5.363   4.293 -0.5550 -0.2760  0.0380
 5996SOL     OW25174   8.453   3.509   1.136  0.1581 -0.4002  0.5108
 5996SOL    HW125175   8.471   3.454   1.218 -1.3994  0.6799  1.6235
 5996SOL    HW225176   8.500   3.598   1.146  0.6018 -0.5601 -0.1351
 5997SOL     OW25177   8.451   8.892   1.830 -0.3721  0.2058  0.4929
 5997SOL    HW125178   8.531   8.948   1.808  0.3456 -0.8969  0.2304
 5997SOL    HW225179   8.400   8.934   1.904 -0.3220  1.6472 -0.2772
 5998SOL     OW25180   8.191   4.301   4.370 -0.3151 -0.0065  0.4523
 5998SOL    HW125181   8.233   4.359   4.440 -1.8223  0.6310  0.8512
 5998SOL    HW225182   8.232   4.320   4.281  0.3223  0.5109  0.8537
 5999SOL     OW25183   4.296   3.052   3.570  0.2138 -0.2565  0.6031
 5999SOL    HW125184   4.326   3.088   3.658  1.4859 -0.3461  0.2258
 5999SOL    HW225185   4.376   3.037   3.512 -0.4168 -2.2089  0.2008
 6001SOL     OW25186   1.445   8.588   3.539  0.2372  0.3996 -0.6775
 6001SOL    HW125187   1.461   8.640   3.623  0.0082 -0.9241  0.2064
 6001SOL    HW225188   1.375   8.634   3.484 -1.4006  0.0104  1.0218
 6002SOL     OW25189   9.989   3.555   2.722 -0.4606  0.0733  0.2486
 6002SOL    HW125190   9.964   3.526   2.814  2.5799 -0.0101  1.0976
 6002SOL    HW225191  10.019   3.475   2.669 -1.8020  0.1802 -0.7061
 6003SOL     OW25192   8.314   7.652   0.151  0.0257 -0.4386 -0.1283
 6003SOL    HW125193   8.287   7.560   0.179  0.0727 -0.2964  0.3784
 6003SOL    HW225194   8.258   7.680   0.073  0.4509 -1.1472 -0.7028
 6004SOL     OW25195   3.647   2.049   0.579 -0.5302  0.4098 -0.2603
 6004SOL    HW125196   3.648   2.135   0.631 -1.5791  0.0313  0.4115
 6004SOL    HW225197   3.553   2.025   0.557 -0.3157 -0.9701  0.2518
 6006SOL     OW25198   4.952   6.973   3.450  0.2017 -0.4084  0.1055
 6006SOL    HW125199   4.983   7.067   3.436 -0.4015 -0.3633 -0.9595
 6006SOL    HW225200   5.025   6.919   3.492  0.5488  0.5288  0.7119
 6007SOL     OW25201   1.683   6.519   1.079 -0.5819  0.3725  0.3093
 6007SOL    HW125202   1.758   6.584   1.092 -0.6813  0.4273  0.6154
 6007SOL    HW225203   1.640   6.499   1.167 -1.4852  1.0105  0.0188
 6008SOL     OW25204   4.895   1.075   1.301 -0.5261  0.2705 -0.2194
 6008SOL    HW125205   4.808   1.119   1.280 -0.8458 -0.8772 -1.4144
 6008SOL    HW225206   4.879   0.996   1.360 -0.5812 -1.1431 -2.0548
 6009SOL     OW25207   2.650   6.447   0.977  0.6311 -0.4896 -0.4576
 6009SOL    HW125208   2.682   6.466   1.070 -0.8404 -1.3010  0.2286
 6009SOL    HW225209   2.648   6.348   0.962  1.7447 -0.3382 -1.6826
 6010SOL     OW25210   3.378   2.147   2.034  0.1749  0.0623 -0.7657
 6010SOL    HW125211   3.307   2.103   1.979  0.3244 -0.1410 -0.7986
 6010SOL    HW225212   3.389   2.242   2.006 -1.7971  0.8164  0.8780
 6011SOL     OW25213   0.024   1.786   1.221 -0.4066 -0.4157 -0.5488
 6011SOL    HW125214  -0.001   1.698   1.262  1.1721  0.2412  1.9268
 6011SOL    HW225215  -0.056   1.846   1.217 -0.6299 -0.5649  1.4308
 6012SOL     OW25216   0.549   4.892   0.741 -0.6070 -0.0925  0.1866
 6012SOL    HW125217   0.539   4.914   0.838 -1.3358  0.3011  0.0237
 6012SOL    HW225218   0.483   4.945   0.688 -1.1595 -1.3391 -0.3826
 6013SOL     OW25219   9.571   9.793   0.037  0.3750 -0.4439 -0.0279
 6013SOL    HW125220   9.532   9.883   0.016  1.6731  0.0780 -0.2290
 6013SOL    HW225221   9.509   9.722   0.006 -0.4748  0.3761 -0.2403
 6014SOL     OW25222   9.249   8.810   1.378  0.2118  0.1220 -0.2276
 6014SOL    HW125223   9.226   8.718   1.410  1.4598  0.0444  0.4738
 6014SOL    HW225224   9.187   8.876   1.420  0.9296 -0.1312  1.2360
 6019SOL     OW25225   4.071   6.690   1.501 -0.2585 -0.1567  0.3160
 6019SOL    HW125226   4.106   6.679   1.594 -0.5627 -3.0785  0.1442
 6019SOL    HW225227   4.012   6.612   1.479 -0.3301  0.6007 -2.2572
 6020SOL     OW25228   1.857   7.151   1.354  0.0262 -0.3292 -0.5448
 6020SOL    HW125229   1.953   7.123   1.351 -0.0890 -1.2436  2.5892
 6020SOL    HW225230   1.801   7.083   1.306  0.5004 -2.0450  1.2790
 6021SOL     OW25231   0.571   4.053   3.293  0.6284 -0.2530 -0.5927
 6021SOL    HW125232   0.543   4.043   3.197 -0.7969 -0.0407 -0.2156
 6021SOL    HW225233   0.490   4.071   3.349  1.6860  1.5716  0.3894
 6022SOL     OW25234   7.153   0.960   0.534  0.0997  0.4050  0.2859
 6022SOL    HW125235   7.089   1.019   0.486 -1.3874 -1.7832 -0.5021
 6022SOL    HW225236   7.239   0.955   0.484 -1.1445 -1.1943 -1.7385
 6023SOL     OW25237   7.639   9.472   2.769 -0.1734  0.3522 -0.0158
 6023SOL    HW125238   7.662   9.485   2.866  0.9185  0.1826 -0.2453
 6023SOL    HW225239   7.557   9.416   2.761 -0.0938  0.1112  0.8096
 6024SOL     OW25240   9.645   2.770   3.998 -0.0672 -0.3333  0.3190
 6024SOL    HW125241   9.662   2.673   3.979 -1.2874 -0.4357 -0.3008
 6024SOL    HW225242   9.550   2.782   4.029  0.3097  0.5591  1.1452
 6025SOL     OW25243   2.891   1.142   1.908  0.0579 -0.0774 -0.0178
 6025SOL    HW125244   2.919   1.126   2.003  1.4548  1.0005 -0.2383
 6025SOL    HW225245   2.913   1.061   1.853 -3.1657 -1.7986  1.0388
 6026SOL     OW25246   7.234   7.299   1.712  0.9972  0.1409 -0.3561
 6026SOL    HW125247   7.269   7.354   1.636  0.6257 -0.3686 -0.9056
 6026SOL    HW225248   7.300   7.228   1.736  0.5566 -0.5139 -1.0687
 6027SOL     OW25249   3.355   5.398   1.089 -0.2130 -0.0992 -0.2987
 6027SOL    HW125250   3.344   5.344   1.005 -1.1207 -0.1758 -0.1343
 6027SOL    HW225251   3.279   5.380   1.150 -0.4166  1.2160 -0.1517
 6028SOL     OW25252   5.100   9.685   0.919  0.5318 -0.4909  0.3830
 6028SOL    HW125253   5.081   9.615   0.989 -2.1433  1.1243  1.3362
 6028SOL    HW225254   5.160   9.754   0.957 -0.0303 -0.1979  0.7512
 6029SOL     OW25255   5.339   7.392   2.891  0.0765  0.4793 -0.1431
 6029SOL    HW125256   5.406   7.458   2.858 -0.7758  0.0789 -2.7597
 6029SOL    HW225257   5.252   7.407   2.844 -0.7325 -1.1361  0.8131
 6032SOL     OW25258   1.194   4.506   0.965  0.5393 -0.0688 -0.1251
 6032SOL    HW125259   1.247   4.521   1.048  2.8311  1.3156 -1.7461
 6032SOL    HW225260   1.171   4.594   0.923 -0.0152 -0.7523 -1.2843
 6033SOL     OW25261   0.804   2.288   3.846 -0.3290  0.1226  0.2528
 6033SOL    HW125262   0.819   2.282   3.945 -0.9634  0.1053  0.3528
 6033SOL    HW225263   0.743   2.365   3.827 -0.4514 -0.0611 -0.0967
 6035SOL     OW25264   1.441   1.117   0.569  0.2045  0.0461  0.5739
 6035SOL    HW125265   1.345   1.140   0.589 -0.4236 -2.5466  0.7674
 6035SOL    HW225266   1.486   1.195   0.527 -1.8744  1.4801  0.9303
 6036SOL     OW25267   9.336   2.830   0.835  0.1022  0.2416 -0.5567
 6036SOL    HW125268   9.242   2.821   0.867 -0.0141  1.9105 -0.3692
 6036SOL    HW225269   9.385   2.745   0.852 -0.5846  0.2943  1.9300
 6038SOL     OW25270   3.545   8.936   1.720  0.0540  0.1183  0.1968
 6038SOL    HW125271   3.488   8.967   1.644 -1.4756 -2.3229  0.2940
 6038SOL    HW225272   3.563   8.838   1.711 -0.6242 -0.3415  3.2587
 6039SOL     OW25273   5.293   0.869   1.023  0.2950  0.3181 -0.3720
 6039SOL    HW125274   5.342   0.785   0.997  1.7527  1.4452 -1.3401
 6039SOL    HW225275   5.296   0.934   0.947 -0.7893  1.2699  0.3908
 6040SOL     OW25276   8.495   3.460   3.324  0.3619  0.5051 -0.0305
 6040SOL    HW125277   8.573   3.408   3.357  0.2891  0.4438  0.0441
 6040SOL    HW225278   8.490   3.547   3.374  0.0900  0.2947  0.3098
 6041SOL     OW25279   8.652   3.763   0.885  0.9260 -0.0290 -0.1915
 6041SOL    HW125280   8.573   3.738   0.828  1.3293 -0.4170 -0.5816
 6041SOL    HW225281   8.646   3.859   0.910  0.0877 -0.1667  0.1513
 6043SOL     OW25282   8.358   0.990   4.319  0.5127 -0.6006 -0.6781
 6043SOL    HW125283   8.450   0.953   4.306  1.1564  0.4861  0.7185
 6043SOL    HW225284   8.316   0.950   4.400  0.4731  0.2836 -0.2574
 6044SOL     OW25285   4.380   3.108   1.769 -0.0408 -0.2961 -0.6958
 6044SOL    HW125286   4.361   3.204   1.790 -0.2319 -0.4647 -0.0714
 6044SOL    HW225287   4.475   3.098   1.741  0.5040 -0.1986  1.0385
 6045SOL     OW25288   9.774   3.135   1.299 -0.2900 -0.5719 -0.0485
 6045SOL    HW125289   9.867   3.145   1.335 -0.2738 -2.0571  0.3326
 6045SOL    HW225290   9.779   3.100   1.205 -0.4274  0.8839 -0.6257
 6047SOL     OW25291   5.096   0.299   0.289 -0.3825 -0.2172  0.0820
 6047SOL    HW125292   5.127   0.253   0.372 -0.8367  0.3223  0.5544
 6047SOL    HW225293   5.026   0.244   0.245 -1.0281  0.0825  0.7221
 6048SOL     OW25294   7.029   7.199   3.680  0.7966 -0.0604  0.4263
 6048SOL    HW125295   7.008   7.159   3.769  0.2009 -1.4456 -0.3173
 6048SOL    HW225296   7.129   7.202   3.668  0.8779  0.1109  1.1308
 6049SOL     OW25297   3.833   1.019   4.148 -0.0554  0.6053 -0.7936
 6049SOL    HW125298   3.924   0.991   4.179  0.4928 -2.0022 -4.4423
 6049SOL    HW225299   3.833   1.118   4.133  1.6517  0.8969  0.9434
 6051SOL     OW25300   1.966   1.640   1.243 -0.3093 -0.0326  0.2424
 6051SOL    HW125301   1.911   1.710   1.289  1.0398  1.5060 -0.4391
 6051SOL    HW225302   2.047   1.619   1.299 -0.5350 -0.8213  0.2835
 6052SOL     OW25303   2.175   8.655   3.831 -0.0228  0.0669 -0.1663
 6052SOL    HW125304   2.263   8.609   3.820  0.8607  1.8877 -0.7772
 6052SOL    HW225305   2.149   8.699   3.744 -2.4954 -2.1042 -0.6030
 6054SOL     OW25306   4.054   0.920   4.237  0.1129 -0.4122 -0.2468
 6054SOL    HW125307   4.104   0.974   4.304 -0.5620  0.4139 -0.3936
 6054SOL    HW225308   4.095   0.830   4.228  0.6809 -0.2446  0.6954
 6055SOL     OW25309   3.814   0.667   0.631 -0.2843 -0.3843  0.1071
 6055SOL    HW125310   3.908   0.701   0.623 -0.5123  0.5574  1.3934
 6055SOL    HW225311   3.768   0.680   0.543  0.4836  0.0670 -0.2431
 6056SOL     OW25312   9.874   5.317   0.704 -0.2643  0.0564 -0.0592
 6056SOL    HW125313   9.884   5.304   0.803 -0.8243 -0.9562 -0.1308
 6056SOL    HW225314   9.899   5.234   0.656 -0.4459  0.3908 -0.7466
 6057SOL     OW25315   3.674   9.977   3.086  0.4133 -0.1939  0.1834
 6057SOL    HW125316   3.643   9.889   3.048  0.0696  0.3395 -0.7953
 6057SOL    HW225317   3.659  10.049   3.018  1.2728  0.5205  0.7539
 6058SOL     OW25318   8.170   7.995   2.769 -0.4043 -0.5378  0.6631
 6058SOL    HW125319   8.185   8.056   2.691  0.0428 -0.1387  1.0565
 6058SOL    HW225320   8.141   7.905   2.736 -2.4496  0.2992  0.1424
 6059SOL     OW25321   7.616   0.768   0.294 -0.2164 -0.5704 -0.4746
 6059SOL    HW125322   7.544   0.801   0.355  0.7393  0.2097  0.2464
 6059SOL    HW225323   7.589   0.679   0.256 -1.9824  0.1369 -0.9617
 6061SOL     OW25324   9.515   4.797   1.958  0.1789  0.6672  0.3509
 6061SOL    HW125325   9.469   4.715   1.924 -0.0781  0.7431  0.5062
 6061SOL    HW225326   9.563   4.776   2.043  0.6157  0.5341  0.0691
 6063SOL     OW25327   1.282   1.721   0.523 -0.1498 -0.6993 -0.0868
 6063SOL    HW125328   1.352   1.732   0.453  0.2390  1.7033  0.6317
 6063SOL    HW225329   1.194   1.753   0.487  0.1760  1.1392  0.6911
 6064SOL     OW25330   3.119   0.251   4.186  0.0181  0.1724  0.0118
 6064SOL    HW125331   3.030   0.293   4.204 -0.5364  0.0642 -2.3339
 6064SOL    HW225332   3.175   0.314   4.132  0.2646 -0.9268 -1.0311
 6065SOL     OW25333   8.721   5.277   1.240  0.1507 -0.2987  0.6908
 6065SOL    HW125334   8.799   5.234   1.195  1.0642  0.3997  1.5827
 6065SOL    HW225335   8.754   5.343   1.307 -1.1640  3.1983 -1.9148
 6066SOL     OW25336   4.862   0.571   2.507  0.6689 -0.4609 -0.1965
 6066SOL    HW125337   4.784   0.538   2.559  1.2818 -0.7379  0.5656
 6066SOL    HW225338   4.912   0.639   2.560  0.7327 -0.0147 -0.8246
 6067SOL     OW25339   7.687   0.729   2.617  0.4648  0.2301 -0.0639
 6067SOL    HW125340   7.674   0.700   2.712  1.2714 -0.0534 -0.0428
 6067SOL    HW225341   7.779   0.766   2.605  0.3052  0.4277 -0.6932
 6068SOL     OW25342   4.580   2.097   2.879 -0.3369 -0.3202 -0.4966
 6068SOL    HW125343   4.661   2.058   2.924  1.0179  1.3867 -1.4435
 6068SOL    HW225344   4.569   2.192   2.907 -1.0057 -0.0227 -1.7632
 6070SOL     OW25345   2.675   1.635   1.456  0.2321 -0.5695 -0.4305
 6070SOL    HW125346   2.663   1.733   1.443 -0.6481 -0.1917  2.6449
 6070SOL    HW225347   2.598   1.599   1.510  1.3867 -2.6221 -0.0960
 6071SOL     OW25348   1.088   7.355   0.046 -0.2400  0.0247 -0.1103
 6071SOL    HW125349   1.118   7.430   0.104 -1.9310  1.2393 -0.7806
 6071SOL    HW225350   1.013   7.385  -0.013 -0.5939 -2.0302 -0.7719
 6072SOL     OW25351   8.952   8.796   0.806 -0.9704 -0.0843  0.3997
 6072SOL    HW125352   9.019   8.807   0.879 -1.5216  2.3445  0.5607
 6072SOL    HW225353   8.965   8.707   0.762  2.5140  0.4535  0.2515
 6073SOL     OW25354   8.063   1.316   2.089  0.1300  0.0333  0.4151
 6073SOL    HW125355   8.078   1.245   2.020 -0.5369  0.2354  0.0651
 6073SOL    HW225356   8.133   1.307   2.161  1.8996  0.9259 -1.1628
 6075SOL     OW25357   8.269   9.971   2.826 -0.3253  0.2011 -0.3296
 6075SOL    HW125358   8.304  10.061   2.801  1.0084 -0.2238  0.0150
 6075SOL    HW225359   8.285   9.955   2.923  0.3403 -0.8262 -0.6119
 6076SOL     OW25360   7.855   0.844   2.044  0.3714 -0.3302 -0.6925
 6076SOL    HW125361   7.941   0.833   1.994  0.0305  0.1784 -1.4040
 6076SOL    HW225362   7.790   0.896   1.988 -0.9439 -2.0730 -0.8068
 6077SOL     OW25363   0.515   3.809   4.302 -0.0527  0.7154  0.4361
 6077SOL    HW125364   0.440   3.835   4.241 -0.4581  1.5828  1.2890
 6077SOL    HW225365   0.562   3.729   4.265 -1.2798  0.2757 -0.1950
 6079SOL     OW25366   1.686   0.851   0.185 -0.3723  0.1182  0.1045
 6079SOL    HW125367   1.655   0.889   0.272 -0.4528 -0.6053  0.3962
 6079SOL    HW225368   1.752   0.779   0.202 -1.1030 -0.6746 -0.3934
 6080SOL     OW25369   1.962   8.272   2.078  0.5981  0.3877 -0.3405
 6080SOL    HW125370   2.027   8.196   2.073 -0.7319 -0.7931 -0.0285
 6080SOL    HW225371   1.869   8.236   2.079 -0.0241  1.9373  1.5837
 6081SOL     OW25372   7.800   2.013   1.360  0.1596 -0.7789  0.3114
 6081SOL    HW125373   7.773   1.917   1.360 -0.4935 -0.6185  2.0738
 6081SOL    HW225374   7.722   2.069   1.387  1.0955  0.0647  1.3201
 6083SOL     OW25375   7.269   1.049   2.197  0.6100 -0.9228 -0.1861
 6083SOL    HW125376   7.235   1.124   2.253 -0.0847 -1.8340  0.6430
 6083SOL    HW225377   7.365   1.065   2.173 -0.3300  1.6462 -2.4761
 6084SOL     OW25378   0.860   8.819   3.400 -0.5397 -0.1484  0.1163
 6084SOL    HW125379   0.937   8.864   3.353 -0.0187 -1.2792 -0.1262
 6084SOL    HW225380   0.835   8.872   3.481 -1.1386  1.5866 -1.1591
 6085SOL     OW25381   9.858   3.619   0.034  0.0549  0.1197  0.0028
 6085SOL    HW125382   9.768   3.598  -0.003  0.5287 -0.9736 -0.5506
 6085SOL    HW225383   9.881   3.715   0.014 -0.2789 -0.0700 -1.3141
 6086SOL     OW25384   8.075   9.477   0.648  0.1677  0.2624 -0.5046
 6086SOL    HW125385   8.100   9.528   0.565 -2.2978  0.4997 -1.1315
 6086SOL    HW225386   8.049   9.542   0.720 -0.1965 -0.0247 -0.3783
 6087SOL     OW25387   8.463   6.380   2.557 -0.7924  0.6773  0.5387
 6087SOL    HW125388   8.461   6.479   2.572  0.8376  1.0320 -1.4999
 6087SOL    HW225389   8.548   6.342   2.593 -1.8652 -0.1724  2.2506
 6088SOL     OW25390   7.334   7.881   4.195 -0.2528  0.5662  0.2016
 6088SOL    HW125391   7.412   7.823   4.217 -1.2437 -0.8553  0.0653
 6088SOL    HW225392   7.252   7.844   4.238 -0.7490  2.4460  0.9549
 6089SOL     OW25393   2.162   1.307   4.387 -0.0360 -0.1858 -0.5018
 6089SOL    HW125394   2.075   1.342   4.422 -0.9214  0.0743 -2.8867
 6089SOL    HW225395   2.237   1.368   4.415 -0.6915  0.0102  0.8932
 6091SOL     OW25396   3.812   7.360   3.243  0.3541 -0.0805  0.3679
 6091SOL    HW125397   3.869   7.419   3.301  1.7155 -1.9095  0.9592
 6091SOL    HW225398   3.850   7.358   3.150 -0.8689  1.5429 -0.1880
 6092SOL     OW25399   4.158   4.437   4.203 -0.5897  0.0208 -0.5737
 6092SOL    HW125400   4.170   4.435   4.104 -1.5455 -0.3294 -0.6915
 6092SOL    HW225401   4.069   4.477   4.225 -0.5496 -0.2587  0.1286
 6094SOL     OW25402   8.408   9.803   2.662  0.5855  0.3169  0.6732
 6094SOL    HW125403   8.348   9.856   2.723  1.0682  3.1950 -1.2577
 6094SOL    HW225404   8.362   9.789   2.575  0.7482 -1.9091  0.9358
 6095SOL     OW25405   1.106   9.970   4.430  0.4102  0.2128 -0.3222
 6095SOL    HW125406   1.147   9.891   4.476  1.4586  0.9336 -0.0015
 6095SOL    HW225407   1.010   9.950   4.408  0.4673 -0.8793  0.3864
 6096SOL     OW25408   1.282   7.891   3.623 -0.4461 -0.2341  0.1520
 6096SOL    HW125409   1.336   7.974   3.610 -1.5499  0.3355 -0.8400
 6096SOL    HW225410   1.197   7.897   3.571 -2.1260 -0.5475  2.7259
 6097SOL     OW25411   0.492   6.165   1.966 -0.3156 -0.0596 -0.0889
 6097SOL    HW125412   0.588   6.185   1.984  0.1823 -0.8967 -1.6776
 6097SOL    HW225413   0.441   6.166   2.052  0.9930  0.9775  0.6945
 6098SOL     OW25414   3.748   2.471   4.395 -0.2224  0.1076 -0.3052
 6098SOL    HW125415   3.731   2.433   4.304 -0.1898 -1.9117  0.5033
 6098SOL    HW225416   3.661   2.476   4.445  0.1728 -1.7199  0.6240
 6100SOL     OW25417   3.118   9.449   0.564  1.0174  0.1711  0.0281
 6100SOL    HW125418   3.184   9.383   0.601 -0.1383 -1.2472 -0.4219
 6100SOL    HW225419   3.116   9.443   0.465 -0.0015  0.0123  0.0542
 6101SOL     OW25420   0.373   2.385   2.870  0.4598  0.6766  0.1114
 6101SOL    HW125421   0.392   2.460   2.806 -0.1335 -0.7677 -1.7778
 6101SOL    HW225422   0.460   2.347   2.901  0.7430  0.6738 -0.6716
 6102SOL     OW25423   0.858   1.421   3.157  0.4298 -0.8845  0.1158
 6102SOL    HW125424   0.953   1.404   3.128  0.8856  2.2855 -0.4617
 6102SOL    HW225425   0.797   1.407   3.079  0.6840 -0.7927 -0.1040
 6103SOL     OW25426   7.964   1.190   2.555 -0.0401  0.0958 -0.2014
 6103SOL    HW125427   8.061   1.166   2.561 -0.3636 -1.1693  0.0945
 6103SOL    HW225428   7.934   1.225   2.644  0.6615  2.5489 -0.8951
 6104SOL     OW25429   7.932   5.004   0.307  0.5992 -0.5139  0.2674
 6104SOL    HW125430   7.904   5.100   0.303 -1.7812 -1.2009  0.0130
 6104SOL    HW225431   7.977   4.986   0.395  1.4681  0.9152  0.1360
 6107SOL     OW25432   8.225   2.045   3.545  0.2671 -0.4321  0.3039
 6107SOL    HW125433   8.281   2.025   3.464  0.2876 -0.7749  0.4012
 6107SOL    HW225434   8.253   2.134   3.583 -1.5354  0.9976 -1.5844
 6108SOL     OW25435   9.102   6.338   0.833 -0.2288  0.4393  0.3188
 6108SOL    HW125436   9.180   6.328   0.895  1.8576 -0.9766 -2.4434
 6108SOL    HW225437   9.045   6.256   0.838 -0.7394  0.8282  1.1806
 6109SOL     OW25438   1.012   7.001   2.819  0.1975 -0.2347 -0.3412
 6109SOL    HW125439   0.932   7.043   2.777 -0.6622  0.4062  1.8465
 6109SOL    HW225440   0.983   6.928   2.880  1.4499 -1.5161 -1.2390
 6110SOL     OW25441   4.515   0.327   2.021 -0.4908 -0.4699 -0.1624
 6110SOL    HW125442   4.607   0.366   2.013  0.3496 -1.8184  2.1724
 6110SOL    HW225443   4.449   0.400   2.033  0.3459  0.4907 -1.3005
 6111SOL     OW25444   0.461   5.143   1.387  0.3334  0.1207 -0.8460
 6111SOL    HW125445   0.525   5.172   1.315  0.2759 -1.1077 -1.4154
 6111SOL    HW225446   0.368   5.145   1.351 -0.0383  2.5806  0.1989
 6113SOL     OW25447   3.558   0.555   4.316  0.1939 -0.1277 -0.4589
 6113SOL    HW125448   3.598   0.646   4.308 -2.0093  0.8072 -1.2562
 6113SOL    HW225449   3.462   0.563   4.344 -0.0842 -2.1873 -0.7344
 6114SOL     OW25450   1.584   1.332   2.427 -0.2863 -0.2065  0.1468
 6114SOL    HW125451   1.627   1.303   2.513  0.9510 -1.1797 -0.7914
 6114SOL    HW225452   1.645   1.395   2.379 -1.0865  0.5301  0.0998
 6115SOL     OW25453   3.326   2.995   1.961  0.2725  0.4762 -0.4558
 6115SOL    HW125454   3.415   2.998   1.915 -0.4485  0.1909 -1.9073
 6115SOL    HW225455   3.273   2.917   1.927 -0.6511  0.8123  0.1704
 6117SOL     OW25456   7.978   2.093   2.409  0.2357  0.0686  0.1158
 6117SOL    HW125457   7.987   2.193   2.408 -0.8017  0.1600 -0.2654
 6117SOL    HW225458   7.913   2.064   2.340  0.1316 -0.8399  0.5811
 6118SOL     OW25459   8.721   8.715   1.228 -0.3840 -0.0577 -0.4486
 6118SOL    HW125460   8.633   8.684   1.193 -0.8277  1.0670 -0.3515
 6118SOL    HW225461   8.733   8.812   1.205  0.1339  0.2011  0.9136
 6119SOL     OW25462   3.734   7.562   2.899  0.1398 -0.1073  0.4712
 6119SOL    HW125463   3.654   7.537   2.952 -0.3485 -0.0964 -0.2521
 6119SOL    HW225464   3.742   7.662   2.896  0.6261 -0.1192  1.1938
 6121SOL     OW25465   5.051   5.737   1.066 -0.5839 -0.3650 -0.4105
 6121SOL    HW125466   5.090   5.652   1.103 -1.8981  0.1226  2.2411
 6121SOL    HW225467   5.120   5.808   1.066 -0.1849 -0.7481 -0.1484
 6122SOL     OW25468   2.747   2.144   2.868 -0.0065 -0.8710 -0.1350
 6122SOL    HW125469   2.655   2.182   2.877  0.1004 -0.7749  0.5388
 6122SOL    HW225470   2.743   2.064   2.808 -0.5045 -0.7963 -0.2123
 6123SOL     OW25471   0.724   7.896   2.125  0.2208  0.2559  0.3972
 6123SOL    HW125472   0.642   7.952   2.110  0.2726  0.1344 -0.3607
 6123SOL    HW225473   0.705   7.828   2.196  0.0684  1.0462  1.1324
 6124SOL     OW25474   5.259   8.374   1.369 -1.0088  0.5447 -0.4753
 6124SOL    HW125475   5.160   8.377   1.388 -0.7936 -0.1616  0.8457
 6124SOL    HW225476   5.281   8.291   1.319 -0.9816  0.3609 -0.1558
 6126SOL     OW25477   9.374   1.014   3.386  0.5705  0.4293  0.3631
 6126SOL    HW125478   9.379   0.919   3.418  0.3467  0.5623  0.7899
 6126SOL    HW225479   9.285   1.031   3.345  1.4438 -0.2345 -1.9052
 6127SOL     OW25480   2.791   5.692   0.544  0.6506 -0.0359 -0.0610
 6127SOL    HW125481   2.843   5.763   0.496  1.4119  0.4843  1.5014
 6127SOL    HW225482   2.746   5.732   0.624 -0.3737 -0.9505 -0.1726
 6128SOL     OW25483   0.405   6.229   2.228  0.2527  0.4479 -0.0544
 6128SOL    HW125484   0.460   6.292   2.283  0.5114  1.0450 -0.9737
 6128SOL    HW225485   0.314   6.268   2.215 -0.1379 -0.1773  0.8186
 6129SOL     OW25486   2.366   2.828   0.311  0.1379  0.3393  0.1370
 6129SOL    HW125487   2.426   2.752   0.334  0.2139  0.1488 -0.6780
 6129SOL    HW225488   2.420   2.907   0.285  0.0396 -0.0021 -1.1355
 6130SOL     OW25489   9.751   2.796   0.755 -0.5424 -0.5114 -0.1501
 6130SOL    HW125490   9.792   2.729   0.816  1.6060  0.5350 -0.3788
 6130SOL    HW225491   9.806   2.802   0.671  0.0285  2.3698  0.3816
 6133SOL     OW25492   8.276   5.227   1.411  0.4320  0.3390  0.2042
 6133SOL    HW125493   8.275   5.179   1.498 -0.0938 -0.4243 -0.2215
 6133SOL    HW225494   8.299   5.323   1.426  1.7552 -0.0909  1.0293
 6134SOL     OW25495   3.640   0.322   1.883  0.5708  0.4397 -0.0568
 6134SOL    HW125496   3.705   0.275   1.944  0.3457  0.7457  0.4221
 6134SOL    HW225497   3.569   0.258   1.854  0.2124  0.5057  0.6693
 6135SOL     OW25498   0.478   4.563   4.077  0.2703  0.2773 -0.0351
 6135SOL    HW125499   0.451   4.468   4.064  1.4743 -0.2619  1.2489
 6135SOL    HW225500   0.534   4.570   4.160 -0.5694  2.2450  0.3862
 6136SOL     OW25501   6.819   8.538   1.679  0.0801 -0.0712 -0.1854
 6136SOL    HW125502   6.773   8.451   1.661  2.0529 -0.7465 -2.0963
 6136SOL    HW225503   6.836   8.585   1.593  1.4445  0.9649  0.6326
 6137SOL     OW25504   9.805   5.579   0.611 -0.3107 -0.5341 -0.2501
 6137SOL    HW125505   9.829   5.485   0.634 -0.6790 -0.7125 -0.5788
 6137SOL    HW225506   9.786   5.631   0.695  2.5029 -0.0177  0.1127
 6138SOL     OW25507   2.178   0.397   3.195  0.1419  0.2838 -0.2896
 6138SOL    HW125508   2.175   0.444   3.107 -0.0547  1.4799  0.3452
 6138SOL    HW225509   2.192   0.464   3.268  0.9725 -0.7631  0.5311
 6140SOL     OW25510   3.738   2.439   3.853  0.1407  0.0349  0.3313
 6140SOL    HW125511   3.741   2.342   3.830  1.5832  0.1607 -0.0633
 6140SOL    HW225512   3.701   2.490   3.775  0.8621 -0.0341 -0.0667
 6141SOL     OW25513   9.940   3.187   2.783 -0.1071  0.1357 -0.4299
 6141SOL    HW125514   9.944   3.089   2.763  0.2555 -0.0756  0.6424
 6141SOL    HW225515   9.979   3.238   2.706  2.2939 -0.7102  0.1684
 6142SOL     OW25516   9.497   9.116   3.606  0.4899  0.6979 -0.0943
 6142SOL    HW125517   9.455   9.158   3.686  0.1089  2.2960 -1.1168
 6142SOL    HW225518   9.571   9.056   3.636 -1.6713 -1.2155  1.6483
 6144SOL     OW25519   1.780   9.534   3.085 -0.4316  0.3200  0.6699
 6144SOL    HW125520   1.825   9.622   3.101  1.1160 -0.5016  0.8522
 6144SOL    HW225521   1.848   9.464   3.065 -1.7224 -0.6258 -0.5326
 6145SOL     OW25522   4.095   4.432   1.658  0.1317  0.1127  0.9461
 6145SOL    HW125523   4.124   4.514   1.608 -1.2761 -0.8608 -1.5965
 6145SOL    HW225524   4.155   4.356   1.633 -0.1178 -0.2128  1.3375
 6146SOL     OW25525   4.232   2.131   1.576 -0.2770 -0.2994  0.2253
 6146SOL    HW125526   4.222   2.227   1.602 -0.4521 -0.0998 -0.5657
 6146SOL    HW225527   4.327   2.104   1.587  0.2921  0.6774 -1.8665
 6147SOL     OW25528   9.869   7.794   3.535 -0.1186  0.4934 -0.2390
 6147SOL    HW125529   9.865   7.697   3.557 -2.0369  0.3928 -0.9381
 6147SOL    HW225530   9.882   7.847   3.619 -2.0041 -0.1988  0.5174
 6148SOL     OW25531   7.916   4.996   1.311 -0.3243  0.7887  0.3851
 6148SOL    HW125532   7.852   5.041   1.373 -0.8163  0.6589 -0.0287
 6148SOL    HW225533   7.942   4.907   1.348 -2.9844 -0.6527 -1.0342
 6151SOL     OW25534   9.056   3.016   4.037 -0.3712  0.9420 -0.6588
 6151SOL    HW125535   9.026   2.972   3.952 -0.7632 -0.4662  0.1842
 6151SOL    HW225536   8.993   2.991   4.111  0.9787  0.6942  0.4252
 6152SOL     OW25537   9.067   9.227   1.247 -0.8706 -0.3780 -0.1345
 6152SOL    HW125538   9.129   9.246   1.324 -0.4284  2.0834 -1.0481
 6152SOL    HW225539   9.004   9.304   1.236 -2.7477 -1.9585 -0.5196
 6153SOL     OW25540   8.801   6.048   3.495  0.1799 -0.3236  0.4354
 6153SOL    HW125541   8.776   5.992   3.417 -1.0114  2.6575 -1.4176
 6153SOL    HW225542   8.724   6.052   3.559 -0.6028  0.9825 -0.5505
 6155SOL     OW25543   9.940   7.177   4.221 -0.4550  0.7173 -0.9968
 6155SOL    HW125544  10.000   7.185   4.300 -1.2835 -0.3932 -0.2463
 6155SOL    HW225545   9.991   7.135   4.145 -0.5498 -1.1811 -0.0379
 6156SOL     OW25546   8.213   1.986   2.050 -0.3140 -0.4495  0.2373
 6156SOL    HW125547   8.238   1.891   2.069 -0.7062 -0.4657  0.6959
 6156SOL    HW225548   8.116   1.990   2.023 -0.1850 -0.2332 -0.1954
 6159SOL     OW25549   7.590   4.810   4.145 -0.3183 -0.3440 -0.1026
 6159SOL    HW125550   7.644   4.742   4.095  1.5574 -0.5223  2.1009
 6159SOL    HW225551   7.547   4.872   4.080  2.9000  0.0868 -1.9364
 6160SOL     OW25552   2.370   1.732   2.545 -0.5898  0.2248  0.3897
 6160SOL    HW125553   2.372   1.655   2.610 -1.2518 -0.5694 -0.5184
 6160SOL    HW225554   2.455   1.784   2.553 -0.1676 -0.5462  1.0713
 6161SOL     OW25555   9.230   3.018   0.664 -0.0015 -0.2533 -0.4241
 6161SOL    HW125556   9.174   3.079   0.721 -0.5809 -1.3531  0.2141
 6161SOL    HW225557   9.275   2.950   0.723 -1.4776 -2.0812 -1.3648
 6162SOL     OW25558   3.665   3.160   1.070  0.2513  0.3183  0.6999
 6162SOL    HW125559   3.666   3.169   0.970  0.2034  0.9859  0.7564
 6162SOL    HW225560   3.758   3.171   1.105  0.2760  0.0320  0.7301
 6164SOL     OW25561   0.485   3.725   1.483  0.2484 -0.2979  0.0946
 6164SOL    HW125562   0.468   3.664   1.560 -0.3738 -1.3130 -0.8257
 6164SOL    HW225563   0.581   3.753   1.483  0.2094 -0.1550  1.3242
 6165SOL     OW25564   8.869   3.314   0.725 -0.2498 -0.0329  0.1118
 6165SOL    HW125565   8.795   3.297   0.790  0.1450 -1.5665  0.1814
 6165SOL    HW225566   8.852   3.263   0.641 -0.2892  1.2190 -0.6484
 6166SOL     OW25567   6.179   0.816   0.418 -0.1865 -0.5681  0.6196
 6166SOL    HW125568   6.244   0.823   0.493 -0.5268 -0.1540  0.8826
 6166SOL    HW225569   6.086   0.829   0.454 -0.2520  0.9763 -0.0650
 6167SOL     OW25570   1.455   4.413   0.840 -0.1698 -0.4314  0.2645
 6167SOL    HW125571   1.437   4.340   0.774  0.4472  0.2688 -0.7062
 6167SOL    HW225572   1.372   4.469   0.851 -0.0585 -0.1045 -0.5025
 6168SOL     OW25573   3.242   7.331   0.282 -0.5070  0.2241  0.5266
 6168SOL    HW125574   3.306   7.331   0.205  0.2404  0.3019  1.1491
 6168SOL    HW225575   3.163   7.273   0.259  0.4668 -1.0536  0.3276
 6169SOL     OW25576   4.862   0.046   1.884 -0.1306 -0.1428 -0.6726
 6169SOL    HW125577   4.894   0.141   1.881  1.8159 -0.8051 -1.6470
 6169SOL    HW225578   4.924  -0.009   1.940  0.7966 -1.5537 -3.0008
 6170SOL     OW25579   6.072   9.726   1.074  0.1579  0.2670 -0.0318
 6170SOL    HW125580   6.022   9.769   0.999  0.6331 -1.0978 -1.1483
 6170SOL    HW225581   6.163   9.766   1.081  0.4161 -0.1843 -0.7383
 6171SOL     OW25582   2.830   5.434   3.492 -0.0236 -0.0613 -0.4210
 6171SOL    HW125583   2.743   5.386   3.486 -0.0458  0.1481 -2.2155
 6171SOL    HW225584   2.888   5.391   3.560 -1.1856 -0.7677  0.1276
 6172SOL     OW25585   3.279   0.952   1.768 -0.4230 -0.1849  0.5311
 6172SOL    HW125586   3.180   0.953   1.753 -0.1779 -0.4489 -1.1664
 6172SOL    HW225587   3.298   0.912   1.858 -1.8077 -1.0432  0.4684
 6173SOL     OW25588   6.973   9.968   1.055 -0.3879 -0.0267  0.0176
 6173SOL    HW125589   7.060   9.924   1.034 -1.0067 -0.3526 -1.9591
 6173SOL    HW225590   6.981  10.018   1.142  1.5449 -0.6161  0.2015
 6174SOL     OW25591   6.872   8.242   2.925 -0.3482  0.6566  0.8003
 6174SOL    HW125592   6.872   8.172   2.997 -1.8366  0.2672  0.4303
 6174SOL    HW225593   6.965   8.275   2.912  0.2464 -0.6410  1.5805
 6177SOL     OW25594   1.428   3.641   0.260  0.0576  0.5448  0.5876
 6177SOL    HW125595   1.448   3.550   0.225 -0.1765  0.2123  1.3160
 6177SOL    HW225596   1.508   3.700   0.249  0.0370  0.3945 -0.3551
 6178SOL     OW25597   8.730   8.871   2.827 -0.1439 -0.4132  0.4381
 6178SOL    HW125598   8.683   8.821   2.900 -0.2415 -0.7649  0.1409
 6178SOL    HW225599   8.664   8.928   2.778  0.5698  2.7082  2.9547
 6180SOL     OW25600   2.474   7.865   0.754  0.6044  0.3628 -0.2901
 6180SOL    HW125601   2.555   7.832   0.705  1.1219  0.8293  0.2453
 6180SOL    HW225602   2.424   7.786   0.791  0.8812  0.0765 -0.5184
 6181SOL     OW25603   3.526   4.415   4.013  0.0514  0.2139  0.2717
 6181SOL    HW125604   3.592   4.389   3.943 -0.9681 -0.5455 -0.4134
 6181SOL    HW225605   3.438   4.372   3.994 -0.9123  1.9663  0.6552
 6182SOL     OW25606   4.475   2.664   4.374 -0.1962  0.1264 -0.0290
 6182SOL    HW125607   4.506   2.682   4.281  1.5579  1.1431  0.7329
 6182SOL    HW225608   4.426   2.744   4.409  0.2345  0.2190  0.3645
 6183SOL     OW25609   2.372   9.168   0.529  0.2112  0.7621  0.2580
 6183SOL    HW125610   2.411   9.094   0.583  0.2471  0.7581  0.2256
 6183SOL    HW225611   2.423   9.252   0.546  1.0218  0.4780 -0.7466
 6184SOL     OW25612   0.237   5.726   3.291  0.1777  0.3357 -0.4041
 6184SOL    HW125613   0.156   5.746   3.237 -0.5984  0.0354  0.6337
 6184SOL    HW225614   0.233   5.776   3.378  1.3610  0.7426 -0.5746
 6185SOL     OW25615   4.799   3.578   2.828  0.0780 -0.3017  0.1279
 6185SOL    HW125616   4.863   3.626   2.769  1.1224  2.3012  3.1934
 6185SOL    HW225617   4.707   3.616   2.815 -0.0024 -0.8603 -0.9581
 6186SOL     OW25618   4.383   0.822   1.101 -0.1048 -0.2861 -0.0742
 6186SOL    HW125619   4.326   0.853   1.026  0.4417  0.8078 -0.0496
 6186SOL    HW225620   4.475   0.860   1.091  0.6077 -1.9636 -0.0750
 6187SOL     OW25621   2.872   4.159   1.813 -0.2609  0.4405  0.3227
 6187SOL    HW125622   2.942   4.199   1.753 -0.1293 -1.6256 -0.9913
 6187SOL    HW225623   2.912   4.141   1.903 -0.4849  3.6682  1.0920
 6188SOL     OW25624   9.523   2.105   0.371 -0.7016 -0.7182  0.3671
 6188SOL    HW125625   9.570   2.030   0.324  2.1701  1.0918  0.2770
 6188SOL    HW225626   9.508   2.181   0.307 -0.2684  0.2393  1.3919
 6189SOL     OW25627   2.125   2.700   0.496 -0.3825  0.8929  0.3609
 6189SOL    HW125628   2.117   2.708   0.596  0.9910  0.3113  0.5224
 6189SOL    HW225629   2.211   2.741   0.466  0.0435 -0.5244 -0.3933
 6190SOL     OW25630   8.519   2.678   2.515 -0.1008 -0.4443 -0.0049
 6190SOL    HW125631   8.538   2.776   2.527  0.7351 -0.5552 -0.3571
 6190SOL    HW225632   8.442   2.652   2.573 -1.5758  0.8288 -1.3213
 6191SOL     OW25633   7.084   6.867   3.429 -0.2733 -0.1639 -0.0098
 6191SOL    HW125634   7.183   6.871   3.445 -0.5050  1.7764  1.0183
 6191SOL    HW225635   7.058   6.935   3.361 -1.0321 -0.0811  0.3541
 6192SOL     OW25636   9.863   7.951   3.730  0.2944  0.0782  0.5051
 6192SOL    HW125637   9.823   8.041   3.745  0.7439  0.4975 -0.7134
 6192SOL    HW225638   9.908   7.920   3.813 -1.3592  0.2072  1.4655
 6193SOL     OW25639   8.165   5.630   3.858  0.5143 -0.0727 -0.1966
 6193SOL    HW125640   8.246   5.633   3.917  0.1285  0.2652  0.3252
 6193SOL    HW225641   8.087   5.595   3.910  0.5513 -1.3240 -0.9782
 6194SOL     OW25642   9.617   2.156   1.759  0.5519 -0.4979 -0.2250
 6194SOL    HW125643   9.616   2.249   1.795 -0.5323 -1.4502  2.3566
 6194SOL    HW225644   9.705   2.112   1.781  0.9408 -0.2106 -1.1657
 6195SOL     OW25645   7.547   6.432   2.519  0.1566  0.3156 -0.1353
 6195SOL    HW125646   7.580   6.364   2.453 -0.0630 -1.0613  1.1506
 6195SOL    HW225647   7.588   6.521   2.498  1.0451 -0.3638 -1.3774
 6196SOL     OW25648   8.287   7.166   0.324  0.4099  0.3827  0.1359
 6196SOL    HW125649   8.219   7.213   0.379  0.6142 -1.0034  1.6148
 6196SOL    HW225650   8.366   7.225   0.309  0.1489  0.9312  0.9292
 6197SOL     OW25651   4.768   2.930   3.416 -0.4805  0.0337  0.8085
 6197SOL    HW125652   4.774   2.830   3.423 -0.5126  0.1009  1.8395
 6197SOL    HW225653   4.825   2.972   3.486  1.2159  0.7594 -0.9780
 6198SOL     OW25654   1.679   6.172   1.432  0.4130  0.4661 -0.1836
 6198SOL    HW125655   1.767   6.219   1.428  0.8824 -0.3560  0.3386
 6198SOL    HW225656   1.695   6.073   1.436 -0.4960  0.3788  1.4823
 6200SOL     OW25657   8.961   6.298   0.537 -0.1751  0.0307  0.5773
 6200SOL    HW125658   8.898   6.371   0.566 -1.2393 -0.0273 -1.5146
 6200SOL    HW225659   8.964   6.227   0.608 -2.3797  0.0946  0.7797
 6201SOL     OW25660   8.442   1.098   0.065  0.3857  0.1358  0.7103
 6201SOL    HW125661   8.477   1.178   0.017  1.9099 -0.3284  0.9986
 6201SOL    HW225662   8.343   1.095   0.058  0.2671  2.2949  1.0835
 6202SOL     OW25663   5.551   7.571   2.253 -0.0276 -0.7276  0.5662
 6202SOL    HW125664   5.649   7.551   2.250 -0.0243 -0.8816  1.6147
 6202SOL    HW225665   5.509   7.525   2.331 -0.5906  0.8048  1.2009
 6204SOL     OW25666   6.054   0.511   3.589 -0.2787 -0.0560  0.2996
 6204SOL    HW125667   6.098   0.436   3.539 -0.4730  0.6191 -0.9072
 6204SOL    HW225668   6.125   0.571   3.627 -0.1278 -0.7019  1.0690
 6205SOL     OW25669   3.649   3.850   1.971 -0.3735 -0.0084 -0.0597
 6205SOL    HW125670   3.717   3.844   2.044 -1.0849  0.4079  0.6409
 6205SOL    HW225671   3.558   3.832   2.008 -0.5121 -1.8312 -1.2269
 6206SOL     OW25672   1.539   8.587   0.639 -0.1842 -0.0537 -0.5247
 6206SOL    HW125673   1.584   8.663   0.592 -0.8071  0.0129 -1.0166
 6206SOL    HW225674   1.586   8.502   0.616  0.0021  0.0789 -0.6411
 6208SOL     OW25675   5.038   4.543   0.708 -0.5539 -0.0568  0.1660
 6208SOL    HW125676   5.049   4.588   0.619  0.2291  0.4697  0.5234
 6208SOL    HW225677   5.101   4.466   0.715  0.2133  0.6093  0.7112
 6209SOL     OW25678   9.276   0.198   1.493 -0.2039  0.2159 -0.5432
 6209SOL    HW125679   9.193   0.164   1.538  0.1661  0.0737  0.0351
 6209SOL    HW225680   9.269   0.297   1.480 -0.1114  0.3330  0.2623
 6210SOL     OW25681   9.959   3.613   3.857  0.5387 -0.4161 -0.2351
 6210SOL    HW125682   9.878   3.669   3.872  1.1946  0.5916 -0.3470
 6210SOL    HW225683   9.936   3.534   3.800 -0.4480 -0.3889  0.1261
 6211SOL     OW25684   0.466   6.698   2.264  0.6897 -0.3418  0.0966
 6211SOL    HW125685   0.472   6.605   2.300 -0.7578 -0.9744 -1.2411
 6211SOL    HW225686   0.556   6.728   2.233  1.1671 -1.2879  0.5551
 6212SOL     OW25687   8.290   6.862   1.650 -0.8457  0.2320  0.7708
 6212SOL    HW125688   8.211   6.834   1.704 -0.6932 -1.3021  0.2287
 6212SOL    HW225689   8.359   6.790   1.651 -0.3517  0.6685 -0.4991
 6213SOL     OW25690   9.012   6.479   1.835 -0.3525  0.4746  0.0036
 6213SOL    HW125691   9.024   6.384   1.805 -0.4816  0.3038  0.4829
 6213SOL    HW225692   9.102   6.521   1.849 -0.2923  0.0238  1.0220
 6214SOL     OW25693   1.328   8.504   3.098  0.1236  0.4465 -0.5095
 6214SOL    HW125694   1.250   8.563   3.079 -0.3252 -0.7930 -2.6865
 6214SOL    HW225695   1.296   8.414   3.128  0.6981  0.0474 -1.0628
 6215SOL     OW25696   9.759   5.566   2.245  0.5976  0.1018 -0.0435
 6215SOL    HW125697   9.843   5.599   2.203  0.4795  0.2102 -0.1961
 6215SOL    HW225698   9.765   5.575   2.345  0.3259  1.1580 -0.1126
 6216SOL     OW25699   1.209   1.842   4.426  0.4480  0.0701 -0.2638
 6216SOL    HW125700   1.213   1.742   4.428  0.1991  0.0484 -0.8432
 6216SOL    HW225701   1.130   1.873   4.479  1.6956  0.0471  1.6444
 6217SOL     OW25702   5.074   7.590   3.761 -0.4175 -0.2303 -0.4810
 6217SOL    HW125703   5.094   7.632   3.673 -1.9853  1.5716 -0.0156
 6217SOL    HW225704   5.089   7.657   3.835 -2.5190 -0.5628  0.3010
 6218SOL     OW25705   2.476   4.029   2.291 -0.3772  0.1907 -0.5245
 6218SOL    HW125706   2.531   4.048   2.373 -2.3618 -1.1178  1.1749
 6218SOL    HW225707   2.389   3.989   2.319 -2.2760  2.3405 -3.1395
 6221SOL     OW25708   9.490   5.123   1.746  0.0143  0.1281 -0.0127
 6221SOL    HW125709   9.434   5.109   1.828 -1.2619  1.0517 -0.7100
 6221SOL    HW225710   9.562   5.189   1.765 -1.0474  1.2889  0.0274
 6222SOL     OW25711   8.161   0.355   4.407  0.2014 -0.0004 -0.0697
 6222SOL    HW125712   8.069   0.318   4.415  0.0342 -0.1191 -2.3184
 6222SOL    HW225713   8.191   0.350   4.312  2.3099  0.5667  0.5396
 6223SOL     OW25714   4.518   3.407   2.394 -0.5328 -0.3464 -0.0237
 6223SOL    HW125715   4.562   3.358   2.319  0.5700  1.0223 -0.2773
 6223SOL    HW225716   4.560   3.379   2.481  1.7127  1.8351 -0.3594
 6224SOL     OW25717   5.793   0.485   3.250  0.1037  0.0720  0.0142
 6224SOL    HW125718   5.779   0.479   3.348 -1.2298 -2.2958 -0.3022
 6224SOL    HW225719   5.786   0.394   3.209 -0.2502  1.1491 -2.3961
 6225SOL     OW25720   3.896   3.387   1.866  0.2236  0.1322  0.8519
 6225SOL    HW125721   3.869   3.315   1.930 -0.7401  0.5726  0.9455
 6225SOL    HW225722   3.887   3.476   1.911  3.5324  0.2003  1.4871
 6226SOL     OW25723   3.167   7.608   0.316 -0.1683 -0.2319  0.2183
 6226SOL    HW125724   3.185   7.654   0.403  0.1531 -0.1000  0.0817
 6226SOL    HW225725   3.163   7.509   0.330 -1.7232 -0.1164  0.6648
 6227SOL     OW25726   0.287   5.999   2.645 -0.0787 -0.5616 -0.5732
 6227SOL    HW125727   0.272   6.098   2.648 -1.5907 -0.7676 -0.9121
 6227SOL    HW225728   0.385   5.980   2.645  0.2372  0.8650  2.1231
 6228SOL     OW25729   4.703   2.466   2.355  0.3414 -0.2549  0.3715
 6228SOL    HW125730   4.669   2.520   2.432 -0.1717 -1.5375  1.0603
 6228SOL    HW225731   4.791   2.424   2.380 -0.0588 -1.0658  0.4537
 6229SOL     OW25732   4.838   2.295   1.853 -0.1884 -0.5460  0.2357
 6229SOL    HW125733   4.889   2.210   1.837  1.5415  0.9193 -2.6006
 6229SOL    HW225734   4.798   2.326   1.767 -0.2718  1.8256  1.0878
 6230SOL     OW25735   4.281   9.848   0.822 -0.0682 -0.4371 -0.3317
 6230SOL    HW125736   4.224   9.778   0.864 -0.5494  0.1784  0.0512
 6230SOL    HW225737   4.351   9.877   0.887 -0.1769 -0.2158 -0.3123
 6232SOL     OW25738   4.613   0.438   1.122 -0.3365 -0.0082 -0.1909
 6232SOL    HW125739   4.588   0.428   1.026 -2.9560  1.5170  0.2657
 6232SOL    HW225740   4.658   0.526   1.136 -0.9386  0.2577  0.1253
 6234SOL     OW25741   8.948   9.771   1.365 -0.0903  0.0709  0.1673
 6234SOL    HW125742   8.902   9.686   1.341  0.7935 -0.7642  1.3528
 6234SOL    HW225743   9.013   9.795   1.293 -0.7171  0.0270 -0.4192
 6235SOL     OW25744   6.374   0.764   2.926  0.4438  0.1576  0.1535
 6235SOL    HW125745   6.300   0.737   2.864  0.0468 -2.3352  1.6245
 6235SOL    HW225746   6.367   0.862   2.946 -1.5375  0.2664 -0.9136
 6236SOL     OW25747   1.800   0.063   1.595  0.3346 -0.1492  0.0075
 6236SOL    HW125748   1.758   0.153   1.604  1.4306  0.2487  1.3127
 6236SOL    HW225749   1.858   0.061   1.513  0.7251  0.4976  0.2686
 6238SOL     OW25750   3.974   9.375   4.213  0.3440 -0.2828  0.3467
 6238SOL    HW125751   3.948   9.391   4.308  0.9842 -0.2523  0.5209
 6238SOL    HW225752   4.074   9.383   4.204  0.3874 -1.3445 -0.1179
 6239SOL     OW25753   0.157   8.248   2.258  0.7051  0.6339  0.2909
 6239SOL    HW125754   0.163   8.244   2.159 -0.6540  1.3396  0.1754
 6239SOL    HW225755   0.244   8.281   2.295  1.3357  0.0244 -0.6284
 6240SOL     OW25756   3.085   6.859   3.521  0.4560  0.9399  0.5805
 6240SOL    HW125757   3.107   6.937   3.462 -1.1317  2.0035  1.3476
 6240SOL    HW225758   3.085   6.889   3.617 -1.7204  0.3970  0.7720
 6241SOL     OW25759   0.387   4.237   0.090  0.0510 -0.0450  0.6866
 6241SOL    HW125760   0.430   4.302   0.026  0.8552 -0.4123  0.8467
 6241SOL    HW225761   0.321   4.180   0.040 -0.2095  0.4813  0.4228
 6242SOL     OW25762   4.755   9.283   1.386 -0.6641 -0.5072  0.1653
 6242SOL    HW125763   4.746   9.279   1.485  1.3973  2.3566  0.5347
 6242SOL    HW225764   4.837   9.233   1.357  0.4937  1.2889  0.2657
 6243SOL     OW25765   8.102   5.744   0.288 -0.4650  0.2371  0.1971
 6243SOL    HW125766   8.140   5.728   0.197 -0.2882  0.3477  0.2519
 6243SOL    HW225767   8.126   5.669   0.348 -0.7440  0.0711  0.1003
 6245SOL     OW25768   0.158   3.924   1.187  0.1935 -0.0019  0.2439
 6245SOL    HW125769   0.175   3.826   1.196  1.9266  0.3393  0.9449
 6245SOL    HW225770   0.060   3.942   1.196 -0.2532 -1.7653 -0.9239
 6246SOL     OW25771   0.337   5.215   3.445  0.3244  0.1584 -0.1238
 6246SOL    HW125772   0.258   5.157   3.462 -0.6546  2.2387  2.7771
 6246SOL    HW225773   0.309   5.296   3.392  0.6332  0.5853  0.3594
 6247SOL     OW25774   0.577   4.038   0.149 -0.0201 -0.3987  0.1639
 6247SOL    HW125775   0.502   4.103   0.151  1.2939  1.1118  1.0441
 6247SOL    HW225776   0.551   3.958   0.094 -2.1900  0.1656  0.3562
 6248SOL     OW25777   7.800   7.743   2.380 -0.2299  0.4818 -0.1458
 6248SOL    HW125778   7.824   7.646   2.382 -0.5543  0.4080  0.2770
 6248SOL    HW225779   7.741   7.761   2.302 -2.3942 -0.1914  1.2956
 6250SOL     OW25780   1.918   8.886   0.916 -0.0434 -0.8901 -0.0294
 6250SOL    HW125781   1.833   8.913   0.960  0.0268  0.3393 -0.6249
 6250SOL    HW225782   1.985   8.858   0.986 -1.1422 -2.5500  0.3940
 6252SOL     OW25783   8.828   8.539   2.568  0.2741  0.1151  0.0971
 6252SOL    HW125784   8.886   8.621   2.573  0.2896  0.2438 -1.7502
 6252SOL    HW225785   8.735   8.567   2.544  0.3104 -0.4180 -0.6644
 6253SOL     OW25786   9.554   3.573   1.029 -0.2321 -0.3113  0.0406
 6253SOL    HW125787   9.537   3.585   0.931 -1.7558  0.8564  0.4382
 6253SOL    HW225788   9.595   3.656   1.067 -0.9021 -0.2716  0.6740
 6254SOL     OW25789   0.349   9.994   4.137  0.4067 -0.8602 -0.2095
 6254SOL    HW125790   0.304   9.939   4.207 -0.9660 -0.1401 -0.5001
 6254SOL    HW225791   0.282  10.055   4.094  1.8844  1.0706  0.1468
 6255SOL     OW25792   0.588   1.911   1.346  0.1430  0.2617  0.1250
 6255SOL    HW125793   0.644   1.840   1.302  0.6457  1.2809 -0.8871
 6255SOL    HW225794   0.610   2.000   1.307 -0.4746  0.9871  1.4208
 6258SOL     OW25795   7.723   2.078   0.037 -0.2236  0.7764 -0.4137
 6258SOL    HW125796   7.822   2.072   0.037 -0.2733 -0.7697 -2.7054
 6258SOL    HW225797   7.689   2.069   0.131  1.7476  0.7941  0.3293
 6259SOL     OW25798   4.154   4.867   1.806  0.4985 -0.9631 -0.5534
 6259SOL    HW125799   4.198   4.860   1.716 -0.3535 -1.1801 -0.9521
 6259SOL    HW225800   4.123   4.776   1.835 -1.9043 -0.4326 -1.3813
 6261SOL     OW25801   9.016   6.552   3.674  0.0911 -0.2947 -0.6945
 6261SOL    HW125802   9.093   6.615   3.682  0.9418 -1.5434  1.1472
 6261SOL    HW225803   9.014   6.513   3.582 -0.2302  2.1189 -1.7375
 6262SOL     OW25804   5.880   0.881   2.791 -0.4123 -0.9333 -0.7708
 6262SOL    HW125805   5.798   0.880   2.733 -0.9260  0.2731 -0.0827
 6262SOL    HW225806   5.960   0.900   2.734 -1.0342  1.2175 -0.9582
 6263SOL     OW25807   3.719   2.105   0.096 -0.2097 -0.0273  0.0053
 6263SOL    HW125808   3.625   2.095   0.062 -0.8744  1.7576  1.2455
 6263SOL    HW225809   3.747   2.201   0.088  1.4528 -0.5185 -0.1993
 6264SOL     OW25810   4.565   8.738   2.339  0.2598 -0.8552  0.7454
 6264SOL    HW125811   4.488   8.680   2.367 -1.5809  1.4499  0.5473
 6264SOL    HW225812   4.643   8.720   2.400 -1.9210  0.1026  3.9613
 6266SOL     OW25813   8.828   8.670   4.201  0.1059 -0.6635  0.4106
 6266SOL    HW125814   8.782   8.672   4.112 -0.2369 -0.0500  0.6001
 6266SOL    HW225815   8.890   8.591   4.205  1.1513  0.0697 -0.8956
 6267SOL     OW25816   4.586   0.943   3.827 -0.2640  0.4197 -0.3182
 6267SOL    HW125817   4.613   0.880   3.755 -1.4333 -0.4402 -0.0181
 6267SOL    HW225818   4.504   0.993   3.798  0.5123  1.6564 -0.4580
 6268SOL     OW25819   0.400   5.548   0.855 -0.1045  0.6774 -0.5608
 6268SOL    HW125820   0.383   5.644   0.834 -2.0234  0.6525  0.7666
 6268SOL    HW225821   0.434   5.501   0.773 -0.1754  2.2416 -1.4938
 6269SOL     OW25822   1.841   1.027   1.426 -0.3940 -0.1797 -0.4939
 6269SOL    HW125823   1.772   1.099   1.425  0.4984  0.7199  0.6079
 6269SOL    HW225824   1.797   0.938   1.434 -1.4406  0.3644 -0.1419
 6270SOL     OW25825   0.086   3.534   4.337  0.2589 -0.5871 -0.2959
 6270SOL    HW125826   0.145   3.586   4.399  0.0662 -0.1127 -0.5087
 6270SOL    HW225827   0.010   3.494   4.388  0.9507 -1.4859  0.0419
 6271SOL     OW25828   9.085   6.901   2.786  0.0751  0.8514  0.4054
 6271SOL    HW125829   9.180   6.885   2.815 -0.5333  0.5144  2.2798
 6271SOL    HW225830   9.023   6.874   2.859 -1.5727 -0.5282 -1.4533
 6272SOL     OW25831   8.351   3.205   0.385 -0.3523 -0.1206 -0.6212
 6272SOL    HW125832   8.347   3.107   0.365 -1.3041 -0.0786 -0.6771
 6272SOL    HW225833   8.382   3.254   0.303 -2.0253 -0.1728 -1.3225
 6273SOL     OW25834   4.702   7.550   3.481  0.0489  0.8701 -0.5873
 6273SOL    HW125835   4.620   7.495   3.470  1.5445 -1.7173  0.6696
 6273SOL    HW225836   4.734   7.544   3.575  1.1514  2.6048 -0.8320
 6274SOL     OW25837   4.466   7.980   1.373  0.6105  0.2036 -0.3650
 6274SOL    HW125838   4.391   8.014   1.430  0.6118 -0.0381 -0.2163
 6274SOL    HW225839   4.437   7.979   1.277 -0.0363 -1.1044 -0.1693
 6276SOL     OW25840   3.272   9.737   1.951 -0.0025 -0.1779 -0.3944
 6276SOL    HW125841   3.350   9.764   2.007  0.6479  0.1041 -1.4279
 6276SOL    HW225842   3.296   9.656   1.897  0.7461  1.8885 -3.2674
 6277SOL     OW25843   4.000   3.475   0.485 -0.0487  0.0069  0.2234
 6277SOL    HW125844   4.058   3.510   0.411  0.4102  0.7218  0.9113
 6277SOL    HW225845   3.904   3.477   0.456  0.2999 -1.5805 -1.0713
 6278SOL     OW25846   5.687   0.876   3.010 -0.1580  0.3304 -0.3570
 6278SOL    HW125847   5.731   0.853   2.923 -0.9644 -0.8953 -0.4543
 6278SOL    HW225848   5.755   0.876   3.083  0.3615  0.4826 -0.8354
 6279SOL     OW25849   0.298   3.865   1.707 -0.2102  0.5715  0.2413
 6279SOL    HW125850   0.257   3.800   1.644 -0.8801  2.0003 -0.8319
 6279SOL    HW225851   0.249   3.864   1.794 -2.4182  2.1043 -0.9549
 6280SOL     OW25852   4.161   7.977   3.978 -0.5273  0.1145 -0.4578
 6280SOL    HW125853   4.212   8.063   3.988  0.8404 -0.6811 -0.4623
 6280SOL    HW225854   4.066   7.991   4.007 -0.1753  1.4807  0.0777
 6281SOL     OW25855   1.146   9.634   2.595  0.6048  0.3287 -0.6232
 6281SOL    HW125856   1.172   9.564   2.528 -1.6159 -0.0105 -1.1944
 6281SOL    HW225857   1.077   9.596   2.657  1.8490  0.9903  1.1918
 6282SOL     OW25858   0.953   9.511   0.927 -0.1271 -0.8268 -0.5060
 6282SOL    HW125859   0.903   9.528   1.012  1.2121 -0.6394  0.2598
 6282SOL    HW225860   1.019   9.437   0.942 -0.7523 -1.6672 -1.7460
 6283SOL     OW25861   3.671   8.066   3.461  0.2224 -0.2002 -0.1906
 6283SOL    HW125862   3.683   7.982   3.408 -2.5411 -0.4411 -0.5110
 6283SOL    HW225863   3.690   8.145   3.403  1.5775 -0.5359 -0.2409
 6284SOL     OW25864   1.713   0.716   3.323 -0.0777  0.2510 -0.2607
 6284SOL    HW125865   1.690   0.637   3.381  0.9595  0.4914  0.4962
 6284SOL    HW225866   1.759   0.684   3.241 -0.7410 -0.0192 -0.5349
 6285SOL     OW25867   3.118   3.773   3.208 -0.5522  0.2073  0.1543
 6285SOL    HW125868   3.140   3.871   3.205  1.5687 -0.2829 -0.6642
 6285SOL    HW225869   3.064   3.749   3.127  0.3632  0.3541 -0.4987
 6286SOL     OW25870   8.262   1.433   3.334 -0.4921 -0.1472  0.0422
 6286SOL    HW125871   8.273   1.345   3.379  1.4698  0.1301  0.1391
 6286SOL    HW225872   8.164   1.453   3.324 -0.9543 -1.8564  0.9124
 6289SOL     OW25873   1.005   8.076   2.890 -0.3902 -0.1144  0.0913
 6289SOL    HW125874   1.052   8.065   2.802 -0.3888  0.2005  0.0511
 6289SOL    HW225875   0.913   8.111   2.874 -0.7826 -1.0932  0.1446
 6290SOL     OW25876   2.295   1.255   3.949 -0.2947 -0.3906  0.3784
 6290SOL    HW125877   2.238   1.309   4.010 -0.1799 -0.1088  0.2366
 6290SOL    HW225878   2.392   1.272   3.970 -0.2547 -0.1536 -0.0068
 6291SOL     OW25879   1.400   7.336   4.021 -0.3028 -0.1305  0.2051
 6291SOL    HW125880   1.490   7.350   4.063  0.0032  0.3136 -0.5893
 6291SOL    HW225881   1.405   7.258   3.959  0.0435  1.0559 -1.2818
 6292SOL     OW25882   5.083   2.705   3.105 -0.6600  0.7553 -0.8440
 6292SOL    HW125883   5.103   2.769   3.030  3.2552 -0.2424 -0.7899
 6292SOL    HW225884   5.111   2.746   3.192 -0.5358 -0.0047 -0.5175
 6293SOL     OW25885   7.093   9.408   4.306  0.3128  0.5453 -0.1294
 6293SOL    HW125886   7.006   9.453   4.288 -0.4153 -1.3885 -1.7476
 6293SOL    HW225887   7.095   9.373   4.399 -1.5766 -1.3524 -0.7792
 6294SOL     OW25888   1.058   1.529   0.706 -0.2715 -0.1250  0.6630
 6294SOL    HW125889   1.007   1.489   0.630 -1.2261 -0.4869  1.4840
 6294SOL    HW225890   1.072   1.627   0.689 -0.3583 -0.2352 -0.0434
 6296SOL     OW25891   3.113   1.252   3.748 -0.0007 -0.3818  0.4281
 6296SOL    HW125892   3.117   1.258   3.848  0.6784 -0.4509  0.4084
 6296SOL    HW225893   3.164   1.172   3.717 -2.3821 -1.8537  0.1826
 6297SOL     OW25894   0.306   5.553   1.935  0.3474 -0.2781 -0.3911
 6297SOL    HW125895   0.309   5.526   2.031  1.8510  2.1238  0.2758
 6297SOL    HW225896   0.258   5.483   1.882 -1.4669 -1.1192  2.2587
 6299SOL     OW25897   8.649   2.831   1.521 -0.4867  0.2413  0.1367
 6299SOL    HW125898   8.655   2.858   1.617  0.9294 -0.3449  0.2192
 6299SOL    HW225899   8.739   2.803   1.488 -1.5845 -2.9070 -0.3676
 6300SOL     OW25900   6.502   9.226   2.535  0.4872  0.5089  0.2050
 6300SOL    HW125901   6.585   9.246   2.587 -0.0958  0.9741  0.9706
 6300SOL    HW225902   6.500   9.129   2.511  2.0311  0.7994 -1.2008
 6301SOL     OW25903   8.086   2.546   0.048  0.0230  0.5929 -0.0216
 6301SOL    HW125904   7.987   2.535   0.053  0.1404 -0.5619  0.0094
 6301SOL    HW225905   8.127   2.521   0.137  0.4502 -0.3861 -0.4804
 6302SOL     OW25906   7.353   9.699   0.861 -0.5041 -0.1613  0.5903
 6302SOL    HW125907   7.391   9.719   0.952  0.1984  0.6529  0.1290
 6302SOL    HW225908   7.273   9.757   0.845  0.3225  0.8461  0.0616
 6304SOL     OW25909   2.783   4.726   1.625  0.7267 -0.2907 -0.4750
 6304SOL    HW125910   2.755   4.794   1.694  2.0379 -0.6940  0.4794
 6304SOL    HW225911   2.705   4.667   1.603  0.8017 -1.4816  2.2106
 6305SOL     OW25912   2.488   4.398   3.081  0.0568  0.1979 -0.0585
 6305SOL    HW125913   2.583   4.375   3.099  0.1090  0.3517 -0.1408
 6305SOL    HW225914   2.428   4.331   3.126  0.2297 -1.1540 -1.8065
 6306SOL     OW25915   9.025   9.383   2.602 -0.4130 -0.3058 -0.5227
 6306SOL    HW125916   8.984   9.474   2.591  0.5280  0.1530 -0.2482
 6306SOL    HW225917   9.103   9.374   2.541 -0.6934 -1.0529 -0.7773
 6307SOL     OW25918   8.300   4.478   1.204 -0.0611 -0.0951 -0.1269
 6307SOL    HW125919   8.204   4.491   1.177  0.2619  3.1353  0.0270
 6307SOL    HW225920   8.313   4.385   1.237 -2.5235 -1.4016 -2.6745
 6308SOL     OW25921   2.819   1.362   2.628 -0.2532  0.5387  0.3493
 6308SOL    HW125922   2.751   1.414   2.575  1.3285  1.8773 -0.3931
 6308SOL    HW225923   2.790   1.358   2.724 -1.2359  1.3342  0.0942
 6309SOL     OW25924   0.735   8.129   1.301  0.1431  0.1656  0.1691
 6309SOL    HW125925   0.799   8.147   1.376  3.2325 -1.4777 -1.9598
 6309SOL    HW225926   0.705   8.216   1.260  2.2656  0.9315  0.2029
 6310SOL     OW25927   0.343   4.250   2.129 -0.2690  0.3026 -0.0709
 6310SOL    HW125928   0.380   4.172   2.178 -0.1013  0.4810  0.0848
 6310SOL    HW225929   0.244   4.255   2.144 -0.0703  0.9549  1.0888
 6311SOL     OW25930   7.859   0.346   1.973  0.4502  0.2841  0.3459
 6311SOL    HW125931   7.891   0.294   2.052 -0.5237  1.4208  1.5165
 6311SOL    HW225932   7.910   0.319   1.892  1.7314 -0.6280  1.4405
 6312SOL     OW25933   5.365   1.030   2.190 -0.2126  0.1264  0.1468
 6312SOL    HW125934   5.418   0.945   2.192 -0.7898 -0.2223  0.8826
 6312SOL    HW225935   5.380   1.077   2.103 -0.7886 -1.2817 -0.7198
 6314SOL     OW25936   2.188   2.789   1.272  0.5514 -0.4159 -0.2682
 6314SOL    HW125937   2.153   2.780   1.178  1.0676  0.1577 -0.5218
 6314SOL    HW225938   2.252   2.714   1.290 -0.5685 -1.2953  0.0945
 6315SOL     OW25939   2.984   0.600   1.369  0.6317 -0.0735 -0.0565
 6315SOL    HW125940   2.974   0.613   1.270  0.2298 -1.0096 -0.1383
 6315SOL    HW225941   3.022   0.509   1.387  1.8976  0.5701  0.5958
 6316SOL     OW25942   1.881   5.164   0.782  0.4189  0.1852  0.3246
 6316SOL    HW125943   1.902   5.069   0.804  0.7985 -0.0830 -1.1589
 6316SOL    HW225944   1.792   5.169   0.736  0.1598  0.6153  0.8568
 6318SOL     OW25945   8.992   1.756   0.250  0.2591 -0.0208 -0.0268
 6318SOL    HW125946   9.019   1.851   0.234 -2.1878  0.7308  0.0516
 6318SOL    HW225947   8.960   1.746   0.344  0.9747 -1.0555  0.1163
 6319SOL     OW25948   0.523   5.333   2.018  0.1867 -0.3131  0.6326
 6319SOL    HW125949   0.453   5.290   2.076 -0.4566 -1.0185 -0.6410
 6319SOL    HW225950   0.518   5.432   2.029 -1.7595 -0.2927 -0.2682
 6320SOL     OW25951   9.132   5.421   1.153 -0.0066  0.7711 -0.0439
 6320SOL    HW125952   9.107   5.361   1.228  0.3820  1.8014  0.9193
 6320SOL    HW225953   9.056   5.483   1.133  0.5096  1.6178  0.6122
 6321SOL     OW25954   4.127   1.939   0.669  0.6535 -0.0491  0.0582
 6321SOL    HW125955   4.160   1.990   0.749 -0.1986  1.6280 -0.6565
 6321SOL    HW225956   4.028   1.926   0.676  0.6232 -0.1605 -0.5946
 6322SOL     OW25957   6.883   0.227   4.017  0.5673  0.0265  0.2200
 6322SOL    HW125958   6.909   0.134   3.992  0.0973 -0.3790  1.2345
 6322SOL    HW225959   6.797   0.226   4.067  1.5281  0.8142  1.9252
 6323SOL     OW25960   9.215   5.266   0.902 -0.0672 -0.2592  0.3450
 6323SOL    HW125961   9.312   5.289   0.897 -0.4560  1.3187 -0.5052
 6323SOL    HW225962   9.176   5.303   0.987 -0.5027  1.5994 -0.6195
 6324SOL     OW25963   0.615   3.020   2.287  0.6968 -0.1188 -0.5146
 6324SOL    HW125964   0.540   3.043   2.226 -1.5836 -0.8155  1.9204
 6324SOL    HW225965   0.638   2.923   2.277  1.1598  0.0546 -1.1367
 6325SOL     OW25966   0.162   8.329   0.493  0.4501  0.5592 -0.3121
 6325SOL    HW125967   0.184   8.249   0.548  0.6246  0.8849  0.1009
 6325SOL    HW225968   0.197   8.317   0.400 -1.9727 -1.0273 -1.0652
 6327SOL     OW25969   3.333   3.519   1.048  0.1180  0.3688  0.5207
 6327SOL    HW125970   3.317   3.543   1.144  0.5598  3.1803 -0.0554
 6327SOL    HW225971   3.303   3.595   0.990  0.4900 -1.0243 -1.5468
 6328SOL     OW25972   7.535   9.311   3.550  0.4239 -0.2888 -0.5105
 6328SOL    HW125973   7.629   9.278   3.540  1.1304  0.9094  1.8947
 6328SOL    HW225974   7.536   9.406   3.581 -1.5893 -0.3573 -0.1662
 6332SOL     OW25975   9.373   1.075   0.185 -0.3502  0.2553 -0.4251
 6332SOL    HW125976   9.423   1.063   0.099 -0.8924 -1.5082 -0.5151
 6332SOL    HW225977   9.426   1.133   0.247 -0.1078  1.8318 -2.0597
 6333SOL     OW25978   1.789   2.013   3.698 -0.6677  0.0950 -0.8304
 6333SOL    HW125979   1.833   2.098   3.726  2.5205 -1.3921 -1.0641
 6333SOL    HW225980   1.757   2.021   3.604  0.6211  0.7084 -1.2338
 6334SOL     OW25981   3.157   9.375   2.180 -0.0006 -0.0787  1.2915
 6334SOL    HW125982   3.136   9.450   2.242  1.6558  1.8081 -0.3480
 6334SOL    HW225983   3.090   9.374   2.105  1.3314  1.3498  0.0173
 6336SOL     OW25984   9.822   5.318   1.482  0.1822  0.3097  0.0074
 6336SOL    HW125985   9.911   5.363   1.487  0.7379 -0.4431 -2.4605
 6336SOL    HW225986   9.795   5.287   1.573  1.6511  2.0161  1.0601
 6337SOL     OW25987   2.087   6.854   2.675  0.1600 -0.0187  0.1508
 6337SOL    HW125988   2.056   6.861   2.770 -0.7113 -1.9374  0.0353
 6337SOL    HW225989   2.039   6.779   2.630  1.6499 -0.0855 -1.3812
 6338SOL     OW25990   2.182   1.088   2.046  0.5431 -0.4785 -0.2265
 6338SOL    HW125991   2.122   1.013   2.018  0.2739 -0.3237 -0.0729
 6338SOL    HW225992   2.204   1.079   2.143 -1.0878  0.7134  0.2782
 6339SOL     OW25993   6.000   8.573   1.043  0.2274  0.3906  0.0160
 6339SOL    HW125994   6.071   8.567   1.112  0.8385  1.0411 -0.5490
 6339SOL    HW225995   5.916   8.607   1.084  0.0277 -1.0540  0.8298
 6340SOL     OW25996   0.437   4.046   3.037 -0.3312 -0.2103 -0.2276
 6340SOL    HW125997   0.503   4.062   2.964 -0.7036 -1.5008 -0.8727
 6340SOL    HW225998   0.361   3.991   3.001 -0.5976 -0.7102  1.0827
 6341SOL     OW25999   5.267   7.396   3.790 -0.2828 -0.2856 -0.4562
 6341SOL    HW126000   5.359   7.434   3.792  0.1036 -1.1538 -1.3154
 6341SOL    HW226001   5.200   7.469   3.778  0.0276  0.7828  3.5202
 6342SOL     OW26002   9.715   7.478   0.826  0.4050 -0.5922  0.2097
 6342SOL    HW126003   9.644   7.456   0.894 -0.9973  1.0302 -0.6712
 6342SOL    HW226004   9.738   7.575   0.833  1.5730 -0.8199 -0.4225
 6343SOL     OW26005   1.347   1.758   3.097 -0.8421  0.2468  0.3134
 6343SOL    HW126006   1.402   1.804   3.166 -0.1262 -0.1677  0.0170
 6343SOL    HW226007   1.363   1.799   3.007  0.8121 -1.4340 -0.1788
 6344SOL     OW26008   2.237   0.794   3.098 -0.5841 -0.7152 -0.0983
 6344SOL    HW126009   2.159   0.830   3.149 -0.8966  0.6307 -1.5340
 6344SOL    HW226010   2.301   0.868   3.078 -0.9614 -1.0246 -2.5645
 6345SOL     OW26011   0.027   0.666   1.092 -0.3872  0.2662  0.1350
 6345SOL    HW126012   0.102   0.732   1.093 -0.6727  0.6054 -1.0930
 6345SOL    HW226013   0.056   0.583   1.141  0.3708  0.8465  0.6877
 6346SOL     OW26014   3.688   6.534   1.578 -0.2117 -0.0125  0.1800
 6346SOL    HW126015   3.696   6.633   1.568  0.4379 -0.2312 -1.5735
 6346SOL    HW226016   3.591   6.508   1.580 -0.3974  0.7465  1.7066
 6349SOL     OW26017   4.305   6.414   1.955  0.0168 -0.1178  0.1740
 6349SOL    HW126018   4.257   6.386   1.873  1.4860 -0.7756 -0.4839
 6349SOL    HW226019   4.306   6.338   2.021 -0.7465  0.2471  0.6097
 6350SOL     OW26020   8.020   9.145   3.782  0.0810 -0.0882 -0.1189
 6350SOL    HW126021   8.048   9.060   3.826  1.3479  1.3579  1.9533
 6350SOL    HW226022   8.066   9.153   3.694 -1.8760 -2.6439 -1.4523
 6352SOL     OW26023   2.210   9.389   3.387 -0.6617  0.3322  0.0800
 6352SOL    HW126024   2.221   9.479   3.427 -0.0860  0.2362  0.1493
 6352SOL    HW226025   2.158   9.331   3.449 -0.1578  0.3180  0.4978
 6354SOL     OW26026   1.179   3.032   2.359  0.2679 -0.1331 -0.6693
 6354SOL    HW126027   1.228   3.118   2.373 -0.4835  0.1277  0.4898
 6354SOL    HW226028   1.245   2.959   2.342  1.0684  0.2606  0.6032
 6355SOL     OW26029   3.424   4.454   3.703 -0.4175  0.1750 -0.4593
 6355SOL    HW126030   3.454   4.375   3.650  3.0136  1.5355 -0.7143
 6355SOL    HW226031   3.346   4.497   3.657 -2.3129 -2.9767 -0.3254
 6356SOL     OW26032   6.838   8.877   1.213  0.0542 -0.4323 -0.0949
 6356SOL    HW126033   6.905   8.833   1.153 -0.3111  0.6189 -1.2884
 6356SOL    HW226034   6.839   8.976   1.197 -1.0837 -0.3093  0.5839
 6357SOL     OW26035   8.522   6.986   1.535  0.2004  0.8533 -0.1181
 6357SOL    HW126036   8.591   6.964   1.604 -0.1910 -0.2491 -0.0664
 6357SOL    HW226037   8.439   6.932   1.552  0.0957  0.5820 -1.4356
 6358SOL     OW26038   2.268   6.322   1.309 -0.4556 -0.5149 -0.0590
 6358SOL    HW126039   2.197   6.372   1.359 -0.2616 -0.3124  0.0162
 6358SOL    HW226040   2.266   6.349   1.212  1.1755  1.3935  0.4175
 6359SOL     OW26041   0.812   6.962   1.515  0.3692 -0.2993  0.1237
 6359SOL    HW126042   0.872   6.905   1.459  0.2287 -1.4343  1.1294
 6359SOL    HW226043   0.864   7.040   1.551  0.5718  0.2013 -1.1915
 6360SOL     OW26044   1.204   1.609   3.982  0.1674  0.3702 -0.1922
 6360SOL    HW126045   1.139   1.661   4.037 -1.7178 -1.3274 -0.7571
 6360SOL    HW226046   1.279   1.577   4.040  0.2765  1.9574  0.5575
 6362SOL     OW26047   9.319   3.583   2.244 -0.3630 -0.5465 -0.0300
 6362SOL    HW126048   9.268   3.606   2.161  0.0836 -0.2873 -0.2351
 6362SOL    HW226049   9.255   3.566   2.318 -0.7324  1.3132  0.1167
 6363SOL     OW26050   4.981   9.945   1.460  0.0728 -0.5654 -0.1043
 6363SOL    HW126051   5.007  10.035   1.495  1.7574 -0.0572 -2.5369
 6363SOL    HW226052   5.025   9.874   1.514  0.7075  0.1179  0.2917
 6364SOL     OW26053   0.702   1.027   1.025  0.6845 -0.2703  0.2196
 6364SOL    HW126054   0.724   0.948   0.968  2.2532  0.6898 -0.5512
 6364SOL    HW226055   0.710   1.001   1.121 -0.2586 -1.4332 -0.0019
 6366SOL     OW26056   5.714   8.049   4.338 -0.7397 -0.2443  0.4587
 6366SOL    HW126057   5.721   8.112   4.261 -2.1294 -0.5599  0.0657
 6366SOL    HW226058   5.730   8.098   4.424 -0.6661  0.3977  0.0719
 6367SOL     OW26059   2.268   5.138   3.941 -0.2090 -0.2104  0.1297
 6367SOL    HW126060   2.321   5.216   3.976 -0.1510  0.0203 -0.4643
 6367SOL    HW226061   2.315   5.053   3.965  0.1258 -0.0314  0.1175
 6368SOL     OW26062   8.207   8.676   4.108  0.1402  0.3949  0.2477
 6368SOL    HW126063   8.204   8.588   4.060 -0.6490  0.9816 -0.7965
 6368SOL    HW226064   8.250   8.744   4.049  1.0006  0.6544  1.1612
 6369SOL     OW26065   8.870   8.631   3.181 -0.0760  0.4527  0.2840
 6369SOL    HW126066   8.962   8.633   3.220 -0.4560 -0.8209  1.2792
 6369SOL    HW226067   8.806   8.674   3.244 -0.7916 -2.1313  1.3994
 6371SOL     OW26068   0.820   6.713   4.407  0.4621  0.0080  0.4366
 6371SOL    HW126069   0.803   6.617   4.384 -0.2227  0.2180  0.0456
 6371SOL    HW226070   0.799   6.770   4.328  0.5842  0.5086  0.7657
 6372SOL     OW26071   9.558   5.894   1.701 -0.2860  0.0624 -0.4140
 6372SOL    HW126072   9.495   5.915   1.776 -1.1794  0.1791 -1.1917
 6372SOL    HW226073   9.606   5.808   1.721  0.1226  0.5446  0.6958
 6373SOL     OW26074   1.703   2.178   2.568  0.0987  0.3819  0.6293
 6373SOL    HW126075   1.635   2.172   2.641 -0.3833 -0.1328  0.1384
 6373SOL    HW226076   1.774   2.243   2.594  0.0789 -0.0164  1.6816
 6374SOL     OW26077   0.990   9.704   3.330  0.1561  0.0974  0.0353
 6374SOL    HW126078   1.054   9.751   3.390  0.0404 -1.2055  1.1996
 6374SOL    HW226079   0.974   9.611   3.364 -0.8769 -0.2316 -1.3088
 6375SOL     OW26080   1.230   2.417   2.811 -0.3439 -0.4912 -0.0701
 6375SOL    HW126081   1.251   2.334   2.863 -1.8045 -0.7085  0.2066
 6375SOL    HW226082   1.202   2.489   2.875  2.4909  0.7382 -0.1608
 6376SOL     OW26083   1.628   4.931   3.811  0.4442 -0.3907 -0.0074
 6376SOL    HW126084   1.725   4.922   3.790  0.4323 -0.6510  0.0451
 6376SOL    HW226085   1.587   5.000   3.752  0.9633  0.7296  0.9360
 6378SOL     OW26086   0.022   8.632   3.130  0.2736 -0.5146 -0.3451
 6378SOL    HW126087   0.027   8.627   3.230  1.3278  0.1185 -0.3560
 6378SOL    HW226088  -0.073   8.627   3.101 -0.1841  1.2786  0.8088
 6379SOL     OW26089   8.024   9.186   3.067  0.4179 -0.0336  0.1375
 6379SOL    HW126090   8.010   9.152   3.160  1.4433 -1.9045 -0.3672
 6379SOL    HW226091   7.994   9.117   3.001  2.6695 -0.0372 -0.9125
 6381SOL     OW26092   0.599   2.876   2.649  0.4777  0.9398 -1.0389
 6381SOL    HW126093   0.678   2.832   2.605  0.1145 -0.0531 -0.6954
 6381SOL    HW226094   0.631   2.953   2.704  1.4195 -0.4434  0.4239
 6382SOL     OW26095   2.985   1.468   1.410 -0.4205  0.1926  0.1768
 6382SOL    HW126096   2.951   1.471   1.504 -1.3956  0.7261 -0.1905
 6382SOL    HW226097   2.909   1.479   1.346  0.5460  2.4638 -0.6377
 6383SOL     OW26098   7.636   9.414   0.914  0.2802 -0.6717 -0.6597
 6383SOL    HW126099   7.582   9.429   0.996  1.1347  1.9395 -0.5421
 6383SOL    HW226100   7.665   9.318   0.909 -0.8688 -1.1301  1.3873
 6385SOL     OW26101   8.970   5.462   4.091  0.2446  0.1545  0.1637
 6385SOL    HW126102   8.973   5.394   4.164  0.3587 -1.8939 -1.6730
 6385SOL    HW226103   8.910   5.537   4.117  0.3283 -0.5083  2.3514
 6386SOL     OW26104   3.226   5.155   1.574 -0.0081 -0.3142 -0.2347
 6386SOL    HW126105   3.128   5.142   1.585 -0.1676  0.6106 -0.5079
 6386SOL    HW226106   3.257   5.230   1.633  0.9466 -2.0879  1.5701
 6387SOL     OW26107   0.805   7.386   4.004  0.3013  0.1661 -0.4154
 6387SOL    HW126108   0.854   7.451   3.947  0.4213  1.3681  1.0408
 6387SOL    HW226109   0.706   7.398   3.992  0.2811  1.8182  1.1225
 6389SOL     OW26110   4.014   0.319   4.106 -0.3535 -0.4887 -0.0731
 6389SOL    HW126111   3.920   0.341   4.080  0.3126  0.5832 -1.6871
 6389SOL    HW226112   4.037   0.367   4.190 -0.6493  0.7854 -0.7016
 6391SOL     OW26113   6.375   9.851   4.360  0.1824  0.2519 -0.4075
 6391SOL    HW126114   6.364   9.857   4.459 -0.1564 -0.3662 -0.4039
 6391SOL    HW226115   6.286   9.846   4.316  0.3336  0.4183 -0.7361
 6393SOL     OW26116   4.624   1.486   0.294  0.2054 -0.0250  0.0474
 6393SOL    HW126117   4.551   1.418   0.286  0.5578 -0.4136  0.0779
 6393SOL    HW226118   4.622   1.526   0.385  1.1542 -1.3473  0.6699
 6394SOL     OW26119   7.832   0.964   3.697  0.7576  0.1203 -0.2761
 6394SOL    HW126120   7.795   0.882   3.741 -0.7394 -0.1297 -1.9118
 6394SOL    HW226121   7.878   1.021   3.765  1.1600 -1.7110  1.0185
 6395SOL     OW26122   3.284   1.162   2.118 -0.2203 -0.6394 -0.2253
 6395SOL    HW126123   3.383   1.164   2.104  0.1331 -2.2318  1.8404
 6395SOL    HW226124   3.242   1.235   2.064  2.1710  0.6809 -0.4025
 6396SOL     OW26125   1.668   3.391   2.422 -0.1214 -0.0785  0.0442
 6396SOL    HW126126   1.586   3.445   2.435  0.0953  0.6675 -1.5544
 6396SOL    HW226127   1.649   3.314   2.360  0.4438  0.2638 -0.5663
 6397SOL     OW26128   0.742   7.451   3.662 -0.1617 -0.3941  0.1203
 6397SOL    HW126129   0.824   7.395   3.650  0.1604  0.1235 -0.1139
 6397SOL    HW226130   0.661   7.398   3.637  0.0995 -0.9041  0.3430
 6398SOL     OW26131   1.988   7.256   3.766  0.2434  0.0332  0.3403
 6398SOL    HW126132   1.996   7.315   3.685  0.5334  0.4347  0.6575
 6398SOL    HW226133   1.987   7.313   3.848 -0.4801 -0.3497  0.5969
 6399SOL     OW26134   8.814   6.732   3.644  0.3872  0.3100 -0.2118
 6399SOL    HW126135   8.733   6.689   3.683  0.4954  0.5123  0.2338
 6399SOL    HW226136   8.894   6.675   3.663  0.8329  1.6825  2.0744
 6400SOL     OW26137   4.814   1.056   2.011 -0.6936  0.4990 -0.3396
 6400SOL    HW126138   4.789   1.138   1.961 -0.3020  0.6919 -0.2215
 6400SOL    HW226139   4.910   1.062   2.040 -0.7905  0.1994  0.0550
 6401SOL     OW26140   0.990   8.119   0.644 -0.1993 -0.3836  0.2661
 6401SOL    HW126141   0.901   8.074   0.641 -0.0876 -0.5672 -0.4488
 6401SOL    HW226142   0.995   8.179   0.724 -1.5166  0.7297 -0.4712
 6402SOL     OW26143   7.125   9.893   0.839 -0.8301  0.4685  0.2286
 6402SOL    HW126144   7.119   9.917   0.743  0.5961  1.1628  0.3009
 6402SOL    HW226145   7.040   9.918   0.885 -1.5084  0.1508 -0.8348
 6404SOL     OW26146   1.951   1.655   3.227  0.0904  0.8396 -0.0435
 6404SOL    HW126147   1.942   1.594   3.306  2.0249  0.5705 -0.0248
 6404SOL    HW226148   1.862   1.662   3.180  0.0090 -2.5642 -0.5014
 6405SOL     OW26149   0.141   7.809   1.522 -0.0615  0.4650  0.0415
 6405SOL    HW126150   0.141   7.744   1.446  0.4801  0.1122  0.3376
 6405SOL    HW226151   0.235   7.826   1.551 -0.0379  3.1026 -1.4838
 6406SOL     OW26152   4.433   3.397   1.750  0.4333 -0.6687  0.2184
 6406SOL    HW126153   4.505   3.450   1.705 -1.8114  1.9481 -0.4454
 6406SOL    HW226154   4.434   3.415   1.848  0.9181 -0.9554  0.2693
 6407SOL     OW26155   3.051   1.998   2.871 -0.2838  0.1171  0.1532
 6407SOL    HW126156   3.123   2.014   2.939 -0.0635  0.7358 -0.2260
 6407SOL    HW226157   2.969   1.964   2.918 -0.2172  0.7866  0.7737
 6408SOL     OW26158   5.411   8.204   3.965 -0.6781  0.4541 -0.4989
 6408SOL    HW126159   5.446   8.156   3.884  1.0639 -0.6252  0.8584
 6408SOL    HW226160   5.340   8.149   4.008  0.8622 -0.6505  0.6837
 6409SOL     OW26161   2.058   8.231   3.483 -0.0212  0.4599  0.3825
 6409SOL    HW126162   2.081   8.144   3.527 -1.2275  0.0290  0.2014
 6409SOL    HW226163   1.972   8.265   3.522 -0.2870  0.8541 -0.5498
 6410SOL     OW26164   8.632   3.952   2.997 -0.0298  0.1532  0.3124
 6410SOL    HW126165   8.576   3.919   3.073 -0.3684  0.9153  0.3987
 6410SOL    HW226166   8.621   4.051   2.989  3.7212  0.8142  2.3411
 6411SOL     OW26167   3.314   1.445   4.372  0.2704 -0.2477 -0.0086
 6411SOL    HW126168   3.219   1.458   4.344 -0.0261  1.1223  1.5699
 6411SOL    HW226169   3.373   1.504   4.318  0.0677 -0.0604 -0.0265
 6412SOL     OW26170   9.538   2.325   0.926 -0.8483  0.3451  0.0679
 6412SOL    HW126171   9.626   2.318   0.879  0.1361 -0.4495  1.9699
 6412SOL    HW226172   9.506   2.234   0.951 -0.8078  0.8296  1.9129
 6413SOL     OW26173   6.115   9.884   3.092  0.1904  0.1148 -0.1226
 6413SOL    HW126174   6.205   9.911   3.060  0.5989  0.0759  0.9736
 6413SOL    HW226175   6.118   9.791   3.129 -0.1707  0.3033  0.4006
 6414SOL     OW26176   1.521   8.408   2.006  0.3964  0.4118 -0.0669
 6414SOL    HW126177   1.435   8.367   1.978  0.9623 -0.2691 -0.8248
 6414SOL    HW226178   1.503   8.480   2.073 -0.6345 -0.6712  0.8344
 6415SOL     OW26179   7.836   6.006   3.156  0.5069  0.0590  0.0693
 6415SOL    HW126180   7.781   6.002   3.072 -2.5400 -1.4888  2.0177
 6415SOL    HW226181   7.840   6.100   3.190 -0.1584  0.3339 -0.6043
 6416SOL     OW26182   0.860   8.409   0.388  0.0015  0.2281  0.3047
 6416SOL    HW126183   0.883   8.325   0.437  0.9882 -1.2764 -2.6487
 6416SOL    HW226184   0.944   8.452   0.355 -0.7652  0.0563 -1.9305
 6417SOL     OW26185   1.909   7.300   1.768  0.4565 -0.5717  0.5507
 6417SOL    HW126186   1.971   7.371   1.733 -0.0552 -0.5692 -0.3629
 6417SOL    HW226187   1.815   7.325   1.746  0.3000 -1.6883 -0.0456
 6418SOL     OW26188   0.051   6.315   3.890  0.3033  0.0650 -0.1994
 6418SOL    HW126189   0.038   6.292   3.793  1.1434 -3.1300  0.3989
 6418SOL    HW226190  -0.016   6.267   3.946  0.3683  1.2240  0.9098
 6419SOL     OW26191   2.032   4.945   1.742 -0.1459  0.3098 -0.5359
 6419SOL    HW126192   2.081   4.999   1.811 -0.5156 -0.2182  0.1520
 6419SOL    HW226193   1.960   4.892   1.787  1.4445 -2.2568 -0.9017
 6421SOL     OW26194   2.217   2.939   3.320  0.1950 -0.3019  0.3826
 6421SOL    HW126195   2.244   2.977   3.232  1.2775 -3.0700 -0.5484
 6421SOL    HW226196   2.291   2.953   3.387  0.3114 -0.1666  0.2248
 6422SOL     OW26197   6.244   1.519   3.708  0.2920  0.2214 -0.4332
 6422SOL    HW126198   6.157   1.502   3.755  0.8839 -0.5809  0.3714
 6422SOL    HW226199   6.242   1.477   3.617  0.2138 -0.6525 -0.0292
 6424SOL     OW26200   4.469   0.660   1.466  0.1196  0.3871 -0.4032
 6424SOL    HW126201   4.510   0.601   1.536 -0.4218  2.2860  1.5775
 6424SOL    HW226202   4.413   0.605   1.405  1.4246 -1.4726  0.0117
 6425SOL     OW26203   3.387   7.300   2.763 -0.6794 -0.1324 -0.6181
 6425SOL    HW126204   3.338   7.329   2.681  0.3330 -0.9506 -1.5280
 6425SOL    HW226205   3.449   7.225   2.740 -0.4180 -0.4018  0.9096
 6426SOL     OW26206   6.658   8.163   1.938  0.3603 -0.6573  0.0937
 6426SOL    HW126207   6.642   8.138   1.842  0.6960 -0.7279  0.0556
 6426SOL    HW226208   6.729   8.233   1.943 -1.2423  1.0273  0.1228
 6427SOL     OW26209   0.840   6.475   3.197 -0.6675 -0.4591 -0.0447
 6427SOL    HW126210   0.753   6.438   3.229 -0.7689  0.1733  0.4311
 6427SOL    HW226211   0.871   6.424   3.117 -2.1729  0.2139 -1.0709
 6428SOL     OW26212   1.379   0.011   2.303  0.0139  0.1742 -0.4119
 6428SOL    HW126213   1.451   0.063   2.349 -2.0350  2.7306  0.0588
 6428SOL    HW226214   1.395   0.012   2.204  2.0154 -1.5214 -0.1293
 6430SOL     OW26215   4.496   2.372   2.208  0.4181  0.0721  0.1455
 6430SOL    HW126216   4.582   2.386   2.257  0.5561 -0.2019 -0.0216
 6430SOL    HW226217   4.514   2.325   2.122  0.4746  2.5187 -1.2364
 6431SOL     OW26218   0.620   5.151   2.476 -0.1150  0.1708  0.0379
 6431SOL    HW126219   0.667   5.187   2.395 -1.2455 -0.6888 -1.0131
 6431SOL    HW226220   0.565   5.224   2.516 -3.7725 -0.6897 -3.0896
 6432SOL     OW26221   9.099   0.224   3.010 -0.4357  0.2848  0.5062
 6432SOL    HW126222   9.174   0.282   2.977 -1.5894  1.0305 -0.8677
 6432SOL    HW226223   9.076   0.156   2.940 -0.5286 -0.4332  1.2322
 6433SOL     OW26224   4.207   1.681   3.425  0.5235 -0.7254  0.0311
 6433SOL    HW126225   4.242   1.600   3.379  1.0029 -0.6260  0.2213
 6433SOL    HW226226   4.130   1.656   3.483 -1.4983 -0.5197 -2.4733
 6434SOL     OW26227   3.306   5.397   4.222  0.0048 -0.1634  0.7182
 6434SOL    HW126228   3.293   5.485   4.178  0.0352  0.7587  2.5234
 6434SOL    HW226229   3.392   5.356   4.190  1.3733  1.7127  1.9192
 6435SOL     OW26230   1.488   2.859   1.198 -0.0595 -0.1131 -0.3384
 6435SOL    HW126231   1.472   2.870   1.296 -0.5199  0.7623 -0.5074
 6435SOL    HW226232   1.484   2.762   1.174 -0.2433 -0.3024  0.4584
 6436SOL     OW26233   4.853   1.899   3.445  0.7009 -0.3029  0.4679
 6436SOL    HW126234   4.774   1.862   3.494 -0.2522 -0.5587 -1.2471
 6436SOL    HW226235   4.848   1.874   3.349  0.4635  3.4990 -0.6163
 6437SOL     OW26236   7.425   0.915   0.464 -0.0732  0.1489 -0.0108
 6437SOL    HW126237   7.429   1.015   0.460 -0.9694  0.1481 -1.0490
 6437SOL    HW226238   7.490   0.882   0.533 -1.5129  1.5841  2.0619
 6438SOL     OW26239   0.117   3.325   4.127 -0.2649  0.5652 -0.7798
 6438SOL    HW126240   0.200   3.320   4.072 -0.2433 -0.8735 -0.6338
 6438SOL    HW226241   0.127   3.398   4.195  1.0153  0.1858 -0.5457
 6439SOL     OW26242   3.066   3.209   4.130  0.1210  0.4271 -0.2946
 6439SOL    HW126243   3.063   3.119   4.085  1.0292 -0.2596  0.9905
 6439SOL    HW226244   2.973   3.247   4.133 -0.2516 -0.4079 -0.9709
 6441SOL     OW26245   3.417   1.959   3.196 -0.1079 -0.6383  0.1334
 6441SOL    HW126246   3.468   1.884   3.237 -0.7746 -0.7564  0.7604
 6441SOL    HW226247   3.481   2.025   3.157  0.4679 -1.7310 -0.7818
 6443SOL     OW26248   7.596   0.106   3.100  0.5691  0.5435  0.4396
 6443SOL    HW126249   7.502   0.103   3.134  0.7079 -0.6369  0.7387
 6443SOL    HW226250   7.621   0.200   3.079 -0.3191  0.9979  1.3830
 6444SOL     OW26251   5.618   6.811   2.825 -0.1596 -0.3110  0.3426
 6444SOL    HW126252   5.520   6.828   2.811 -0.4538  0.6307  3.1358
 6444SOL    HW226253   5.637   6.808   2.923  2.5558 -0.9399 -0.1639
 6445SOL     OW26254   8.633   8.693   4.360  0.3559  0.4498  0.2291
 6445SOL    HW126255   8.711   8.680   4.299 -0.8672 -1.2648 -1.0056
 6445SOL    HW226256   8.666   8.714   4.452  2.2390  1.3508 -0.6175
 6446SOL     OW26257   3.755   4.557   0.521  0.1330  0.0870  0.2271
 6446SOL    HW126258   3.839   4.530   0.475  0.4985  1.9425 -0.2069
 6446SOL    HW226259   3.761   4.535   0.618  0.6545 -0.8242 -0.0107
 6448SOL     OW26260   7.790   3.738   4.411  0.2666 -0.5994 -0.1117
 6448SOL    HW126261   7.714   3.687   4.372  0.1470  0.3338 -1.1361
 6448SOL    HW226262   7.876   3.704   4.373  0.1993 -0.2087 -0.6371
 6450SOL     OW26263   6.896   0.137   3.760 -0.4504 -0.6342 -0.0855
 6450SOL    HW126264   6.825   0.085   3.807 -1.4652  1.4898  0.7940
 6450SOL    HW226265   6.923   0.215   3.816  3.1544 -1.8183 -0.0470
 6453SOL     OW26266   5.379   8.093   2.680  0.6370  0.2965 -0.2547
 6453SOL    HW126267   5.409   8.183   2.647  0.6125  0.6075  0.5738
 6453SOL    HW226268   5.413   8.078   2.772  0.6508 -0.5591 -0.3958
 6454SOL     OW26269   9.125   0.510   1.550  0.2116  0.6808 -0.1660
 6454SOL    HW126270   9.225   0.503   1.551  0.1351 -2.1117 -3.1942
 6454SOL    HW226271   9.097   0.578   1.482  0.0638  0.3819 -0.4100
 6455SOL     OW26272   0.492   9.348   1.434 -0.0049 -0.2913 -0.5745
 6455SOL    HW126273   0.512   9.415   1.363 -1.6588  0.4838 -0.3294
 6455SOL    HW226274   0.502   9.391   1.524 -1.0080 -0.3728 -0.4148
 6456SOL     OW26275   3.010   6.864   3.077 -0.3314 -0.0438  0.4474
 6456SOL    HW126276   3.107   6.882   3.091 -0.2150 -0.3331  0.0153
 6456SOL    HW226277   2.999   6.780   3.025 -0.7882  0.4954 -0.3329
 6457SOL     OW26278   2.272   7.525   3.664  0.1208  0.5601  0.1849
 6457SOL    HW126279   2.174   7.518   3.643 -0.1592  0.7948  1.3738
 6457SOL    HW226280   2.284   7.577   3.748  1.3237  1.1557 -0.3585
 6460SOL     OW26281   2.921   0.779   4.130 -0.6397  0.0588  0.1110
 6460SOL    HW126282   2.866   0.731   4.198  0.2710 -0.0733  0.7669
 6460SOL    HW226283   2.927   0.724   4.047  0.1749 -0.8557  0.7631
 6464SOL     OW26284   4.407   8.448   2.035 -0.0573 -0.3829  0.5079
 6464SOL    HW126285   4.504   8.426   2.046  0.0459  0.5471  1.6623
 6464SOL    HW226286   4.373   8.409   1.950  1.2773 -0.8926  0.1921
 6465SOL     OW26287   0.748   9.253   0.330 -0.4251 -0.3053 -0.6199
 6465SOL    HW126288   0.699   9.314   0.392  0.0091  0.8855 -1.4284
 6465SOL    HW226289   0.699   9.249   0.243 -0.4014 -1.0420 -0.5989
 6466SOL     OW26290   9.261   8.221   3.150  0.1199 -0.6515 -0.1572
 6466SOL    HW126291   9.343   8.165   3.141  0.4418 -0.0461 -1.0147
 6466SOL    HW226292   9.258   8.288   3.077 -1.8464 -1.5634 -0.9465
 6467SOL     OW26293   1.452   4.419   1.908  0.7626 -0.1730  0.1282
 6467SOL    HW126294   1.518   4.450   1.839 -0.4066 -0.2321 -1.0419
 6467SOL    HW226295   1.380   4.488   1.919  0.0578 -0.8961  0.0911
 6468SOL     OW26296   5.844   8.640   1.754  0.4583 -0.6364 -0.2745
 6468SOL    HW126297   5.942   8.643   1.773  0.2667 -1.3554  0.8878
 6468SOL    HW226298   5.813   8.729   1.721  1.1742  0.1116  1.0249
 6469SOL     OW26299   0.244   9.592   3.556 -0.8529  0.0558  0.1518
 6469SOL    HW126300   0.221   9.686   3.531 -0.4595 -0.0705 -0.6828
 6469SOL    HW226301   0.226   9.579   3.654  1.4995  1.7387  0.8517
 6470SOL     OW26302   2.766   7.238   2.665  0.1231 -0.3090  0.0045
 6470SOL    HW126303   2.809   7.147   2.665 -0.3522 -0.5332  1.0816
 6470SOL    HW226304   2.666   7.228   2.665  0.0671  0.2108  0.9002
 6471SOL     OW26305   1.854   1.722   2.130  1.0270  0.2365 -0.5607
 6471SOL    HW126306   1.835   1.811   2.090  0.5856  1.6360  2.5995
 6471SOL    HW226307   1.953   1.713   2.145  1.0205  0.4441 -0.3826
 6472SOL     OW26308   1.972   0.697   2.846  0.4964  0.2659  0.0220
 6472SOL    HW126309   2.046   0.667   2.786 -1.3071 -0.0262 -2.1236
 6472SOL    HW226310   1.968   0.797   2.847  0.8630  0.2801  0.0531
 6473SOL     OW26311   0.694   1.297   2.038  0.1347 -0.0854 -0.2312
 6473SOL    HW126312   0.638   1.301   1.956 -0.4646 -1.1534  0.1156
 6473SOL    HW226313   0.637   1.315   2.118  0.3688 -0.7088  0.0860
 6474SOL     OW26314   8.641   2.124   0.093 -0.8130  0.4075  0.5593
 6474SOL    HW126315   8.717   2.122   0.158 -0.9532  0.8322  0.7359
 6474SOL    HW226316   8.640   2.212   0.046  0.2840 -0.4997 -1.2044
 6475SOL     OW26317   5.601   0.666   3.206  0.4987 -0.2951 -0.5372
 6475SOL    HW126318   5.695   0.631   3.211  0.2672 -0.7930  0.5098
 6475SOL    HW226319   5.592   0.726   3.128  1.2767 -1.5171 -1.5890
 6476SOL     OW26320   8.488   2.663   2.841  0.3038  0.3394  0.4392
 6476SOL    HW126321   8.512   2.741   2.898  0.2783  0.4015  0.3659
 6476SOL    HW226322   8.565   2.600   2.835  1.2212  1.5953 -1.5559
 6477SOL     OW26323   2.929   0.960   1.461  0.0358  0.4181  0.2037
 6477SOL    HW126324   2.988   0.881   1.444 -0.0699  0.2791  0.4849
 6477SOL    HW226325   2.984   1.044   1.457  0.7013  0.1271  2.7730
 6479SOL     OW26326   3.031   7.679   1.933 -0.4147  0.2781  0.2693
 6479SOL    HW126327   3.055   7.755   1.873  0.6175 -0.7899 -0.6927
 6479SOL    HW226328   3.094   7.677   2.011  0.4858 -0.4915 -0.4833
 6480SOL     OW26329   5.797   1.228   3.580 -0.3216 -0.1210  0.0770
 6480SOL    HW126330   5.793   1.181   3.668 -1.0360 -1.6192 -0.7423
 6480SOL    HW226331   5.744   1.313   3.584 -1.9873 -1.1643  0.5116
 6482SOL     OW26332   3.779   0.491   4.082 -0.1447 -0.1070  0.0280
 6482SOL    HW126333   3.734   0.411   4.121 -2.0555  0.0618 -1.7430
 6482SOL    HW226334   3.746   0.574   4.127  0.6565 -0.1976  0.7860
 6483SOL     OW26335   8.711   2.151   4.228 -0.6926  0.0258 -0.2754
 6483SOL    HW126336   8.779   2.114   4.291 -1.7227 -0.2062  0.7209
 6483SOL    HW226337   8.723   2.111   4.137 -0.4195 -1.0945  0.2568
 6485SOL     OW26338   7.211   8.828   1.903 -0.0959  0.0603  0.4691
 6485SOL    HW126339   7.295   8.878   1.884  0.4639 -0.4478  1.5180
 6485SOL    HW226340   7.212   8.741   1.854 -1.1542  1.1329 -1.5032
 6486SOL     OW26341   7.982   3.040   3.084  0.3448 -0.3128  0.3857
 6486SOL    HW126342   8.068   3.005   3.046 -0.1652 -0.0494 -1.0354
 6486SOL    HW226343   7.998   3.130   3.124  0.6496 -0.1039 -0.2097
 6488SOL     OW26344   3.892   7.327   2.133 -0.4038 -0.1035 -0.2163
 6488SOL    HW126345   3.857   7.288   2.048  3.1364 -0.4694 -1.5746
 6488SOL    HW226346   3.894   7.427   2.125 -0.1977 -0.1312 -0.5242
 6489SOL     OW26347   3.632   0.477   1.502 -0.3319 -0.6632 -0.3268
 6489SOL    HW126348   3.638   0.549   1.571  0.3106 -2.4961  1.5458
 6489SOL    HW226349   3.683   0.506   1.421 -0.3007  1.1029  0.2866
 6491SOL     OW26350   9.308   5.703   0.080 -0.1061 -0.6896 -0.2626
 6491SOL    HW126351   9.382   5.648   0.118  1.2989 -0.5330 -2.6279
 6491SOL    HW226352   9.228   5.645   0.062  0.7608 -1.6339 -1.1277
 6494SOL     OW26353   4.092   7.832   1.482  0.4570  0.0557  0.3324
 6494SOL    HW126354   4.053   7.820   1.574 -2.2317 -0.1893 -0.7859
 6494SOL    HW226355   4.147   7.752   1.459  2.1635  0.6511  2.1779
 6495SOL     OW26356   9.420   5.309   2.395  0.4063 -0.3442 -0.4989
 6495SOL    HW126357   9.459   5.353   2.475  0.5026 -0.6212 -0.3943
 6495SOL    HW226358   9.479   5.234   2.366  0.4664 -0.1295 -0.9368
 6496SOL     OW26359   9.993   4.132   2.591  0.3625  0.2881 -0.0392
 6496SOL    HW126360   9.940   4.089   2.664 -2.8342 -0.8192 -2.8760
 6496SOL    HW226361  10.055   4.064   2.550  0.3626  0.2353  0.0490
 6497SOL     OW26362   0.537   5.126   3.696 -0.2647 -0.1204 -0.0943
 6497SOL    HW126363   0.565   5.212   3.653 -1.9130 -0.3262 -1.6680
 6497SOL    HW226364   0.567   5.049   3.640 -0.9062 -0.4618  0.0201
 6498SOL     OW26365   8.862   9.818   0.267  0.0335 -0.2969 -0.6145
 6498SOL    HW126366   8.820   9.833   0.178 -0.0117  0.8578 -0.4045
 6498SOL    HW226367   8.798   9.770   0.326 -0.2901 -0.2257 -0.9038
 6499SOL     OW26368   8.451   5.742   1.599  0.1835  0.0498 -0.3341
 6499SOL    HW126369   8.366   5.713   1.556 -0.4124  0.5307  0.5019
 6499SOL    HW226370   8.528   5.723   1.538 -0.4949 -0.6522 -0.9684
 6500SOL     OW26371   3.615   4.732   2.851  0.1961 -0.1744  0.3026
 6500SOL    HW126372   3.675   4.689   2.918  1.0372 -0.4818 -0.6339
 6500SOL    HW226373   3.607   4.672   2.771  0.1319  0.7101 -0.3542
 6501SOL     OW26374   0.578   3.904   1.750  0.2919  0.1463  0.7552
 6501SOL    HW126375   0.608   3.873   1.661 -1.1162  3.2079 -0.8837
 6501SOL    HW226376   0.479   3.888   1.760  0.3137  0.4076  1.4838
 6502SOL     OW26377   0.732   5.939   4.217  0.5611  0.1509 -0.5382
 6502SOL    HW126378   0.661   5.893   4.269  1.1462  0.0824  0.2021
 6502SOL    HW226379   0.819   5.933   4.265  0.9257  0.8556 -1.0860
 6503SOL     OW26380   2.875   3.797   0.087 -0.1832  0.1678 -0.2704
 6503SOL    HW126381   2.964   3.751   0.084  0.0917  0.7630 -1.4336
 6503SOL    HW226382   2.889   3.894   0.107 -0.6703  0.0260  0.8147
 6505SOL     OW26383   0.644   0.819   0.426 -0.0804  0.0050  0.2072
 6505SOL    HW126384   0.646   0.882   0.349 -1.8404  1.9125  1.6944
 6505SOL    HW226385   0.578   0.746   0.408 -0.1854  0.2120 -0.2471
 6506SOL     OW26386   9.202   9.544   2.373 -0.6961  0.1315 -0.2781
 6506SOL    HW126387   9.244   9.612   2.432 -3.7682  2.5184 -0.7347
 6506SOL    HW226388   9.221   9.452   2.408  0.5755  1.3584  2.3277
 6507SOL     OW26389   0.939   4.907   3.264  0.3227 -0.3188 -0.1816
 6507SOL    HW126390   0.866   4.890   3.331  0.8895  0.5528  0.6703
 6507SOL    HW226391   0.927   4.996   3.222  0.0599 -0.7996 -1.1317
 6508SOL     OW26392   9.953   2.421   0.165 -0.2201  0.1623  0.3102
 6508SOL    HW126393   9.926   2.515   0.149  3.0094  0.6686 -2.8430
 6508SOL    HW226394   9.897   2.360   0.110  0.2114  0.5884 -0.6108
 6509SOL     OW26395   0.471   7.272   1.975 -0.4078 -0.4614 -0.6298
 6509SOL    HW126396   0.483   7.361   1.932 -1.2716 -0.5204 -1.0097
 6509SOL    HW226397   0.388   7.274   2.032 -0.0238 -0.7949 -0.0573
 6510SOL     OW26398   8.510   5.574   0.417 -0.5862 -0.5037  0.2389
 6510SOL    HW126399   8.501   5.594   0.320 -0.4604 -0.9589  0.1328
 6510SOL    HW226400   8.575   5.638   0.459 -1.6897  0.5878  0.3106
 6511SOL     OW26401   9.162   2.182   1.215  0.0172  0.0613 -0.5208
 6511SOL    HW126402   9.111   2.117   1.271 -0.3587  1.6222  0.9939
 6511SOL    HW226403   9.111   2.200   1.131 -0.8765 -0.0510 -0.0104
 6512SOL     OW26404   0.908   4.744   0.393  0.3983  0.6764  0.2058
 6512SOL    HW126405   0.876   4.681   0.464 -1.5507  0.7388 -0.5989
 6512SOL    HW226406   0.957   4.693   0.323  0.1442  0.2721  0.3203
 6514SOL     OW26407   1.938   3.357   0.223  0.2439  0.1888 -0.3389
 6514SOL    HW126408   1.920   3.403   0.136  1.2026 -0.0510 -0.6720
 6514SOL    HW226409   2.036   3.351   0.238  0.0885 -0.0383  0.6238
 6516SOL     OW26410   8.660   6.817   4.231 -0.1773  0.5303 -0.0052
 6516SOL    HW126411   8.577   6.866   4.203 -0.0633  0.3945 -0.5816
 6516SOL    HW226412   8.698   6.769   4.152 -0.8604 -1.3128  0.7566
 6517SOL     OW26413   1.075   0.407   2.208 -0.0413 -0.1478  0.1129
 6517SOL    HW126414   1.041   0.334   2.267  0.1597  0.7892  1.3981
 6517SOL    HW226415   1.059   0.496   2.251  0.8644  0.5041 -0.8574
 6519SOL     OW26416   7.594   3.182   1.947  0.7383 -0.4474 -0.2444
 6519SOL    HW126417   7.637   3.258   1.996 -2.2897  1.4830 -0.4690
 6519SOL    HW226418   7.585   3.206   1.851 -0.1793 -1.1502 -0.3333
 6520SOL     OW26419   0.204   8.955   0.898  0.1800 -0.0669  0.2535
 6520SOL    HW126420   0.280   8.903   0.859 -0.2123  0.1664 -0.8597
 6520SOL    HW226421   0.193   8.932   0.994 -0.6778 -2.8997 -0.4684
 6521SOL     OW26422   0.553   4.681   2.330 -0.5545  0.0602  0.3124
 6521SOL    HW126423   0.554   4.584   2.306  0.1713  0.3818 -0.9757
 6521SOL    HW226424   0.626   4.700   2.396 -0.5382 -0.2100  0.3705
 6522SOL     OW26425   3.474   1.318   3.605  0.2280  0.3754 -0.0664
 6522SOL    HW126426   3.517   1.309   3.515 -0.0922  0.7372 -0.2584
 6522SOL    HW226427   3.514   1.252   3.668 -0.6714 -1.0101 -0.9088
 6523SOL     OW26428   8.613   6.531   3.719 -0.2369 -0.0237  0.1027
 6523SOL    HW126429   8.592   6.491   3.630  0.0489  0.0492 -0.0001
 6523SOL    HW226430   8.530   6.571   3.758  0.0837  1.8906 -1.1195
 6524SOL     OW26431   1.126   3.561   3.317  0.5878 -0.5820  0.0007
 6524SOL    HW126432   1.211   3.533   3.273  0.1347 -0.1224 -1.1936
 6524SOL    HW226433   1.048   3.526   3.265  0.0447 -0.2659  0.5879
 6525SOL     OW26434   9.531   8.631   2.303 -0.4787  0.6607  0.4766
 6525SOL    HW126435   9.555   8.545   2.348 -0.6957  0.2083 -0.2596
 6525SOL    HW226436   9.445   8.665   2.341 -0.9350  0.0084  0.0479
 6526SOL     OW26437   8.729   5.209   4.282 -0.2627 -0.7758  0.1333
 6526SOL    HW126438   8.813   5.255   4.311  0.1906  0.5763 -3.1238
 6526SOL    HW226439   8.652   5.272   4.288 -0.6907 -1.3641  1.0416
 6527SOL     OW26440   3.098   4.879   1.788  0.4931 -0.0977  0.0206
 6527SOL    HW126441   3.191   4.913   1.801  0.4324  0.7168 -1.4895
 6527SOL    HW226442   3.099   4.806   1.719 -0.0990  0.5108 -0.6347
 6529SOL     OW26443   8.875   6.646   2.218 -0.5495 -0.3100 -0.1352
 6529SOL    HW126444   8.965   6.653   2.174 -1.7063  1.2605 -2.3532
 6529SOL    HW226445   8.859   6.728   2.274 -2.2901  1.5044 -3.1488
 6531SOL     OW26446   0.164   1.947   2.863 -0.4503  0.2701  0.3063
 6531SOL    HW126447   0.203   1.899   2.941  0.4488  1.0590  0.3508
 6531SOL    HW226448   0.096   2.013   2.894 -1.0476 -0.3412  0.3125
 6532SOL     OW26449   9.824   4.350   3.744 -0.1901 -0.4467 -0.2108
 6532SOL    HW126450   9.769   4.290   3.686 -1.2594 -0.2570  0.5864
 6532SOL    HW226451   9.823   4.443   3.708  1.3743 -0.8666 -1.3847
 6533SOL     OW26452   3.104   0.645   2.836 -0.0139  0.8359  0.4018
 6533SOL    HW126453   3.198   0.658   2.805  0.6186 -1.0271  1.4278
 6533SOL    HW226454   3.087   0.700   2.917  0.6062  0.2047  0.9624
 6534SOL     OW26455   8.698   3.168   0.267  0.2382  0.2746 -0.3393
 6534SOL    HW126456   8.656   3.079   0.284 -0.0236  0.1131 -1.7466
 6534SOL    HW226457   8.629   3.232   0.232  0.5389  0.8743  0.1428
 6536SOL     OW26458   0.554   4.404   2.222 -0.0525 -0.2880  0.5867
 6536SOL    HW126459   0.487   4.333   2.203  0.1755 -0.3762  0.1085
 6536SOL    HW226460   0.618   4.411   2.146  0.6619 -0.4072  1.1755
 6537SOL     OW26461   8.578   0.722   0.226 -0.6421  0.2190 -0.1398
 6537SOL    HW126462   8.676   0.708   0.212 -0.3640  0.5722  1.3925
 6537SOL    HW226463   8.528   0.664   0.162  0.5602 -0.4772 -0.4841
 6538SOL     OW26464   5.674   7.389   3.100  0.2965 -0.3082 -0.0770
 6538SOL    HW126465   5.746   7.321   3.087  1.0507  0.7214 -1.3096
 6538SOL    HW226466   5.700   7.475   3.058 -1.2467  0.3679  0.2928
 6539SOL     OW26467   8.018   7.314   4.162  0.1071 -0.4483 -0.5636
 6539SOL    HW126468   8.111   7.279   4.152  0.3940  0.3173 -0.6309
 6539SOL    HW226469   7.975   7.321   4.072  0.7298  1.1848 -0.7478
 6540SOL     OW26470   1.189   3.127   0.393  0.0407 -0.0373 -0.6676
 6540SOL    HW126471   1.107   3.156   0.442 -0.1333  0.7245 -1.3894
 6540SOL    HW226472   1.163   3.097   0.301  0.4991 -0.3998 -0.6825
 6541SOL     OW26473   4.365   7.836   3.664  0.0649  0.0853  0.2820
 6541SOL    HW126474   4.388   7.764   3.729  0.9459  0.1466  0.0504
 6541SOL    HW226475   4.268   7.857   3.671 -0.0473 -0.5902  0.8867
 6542SOL     OW26476   0.042   8.368   0.740  0.2981 -0.0920  0.1298
 6542SOL    HW126477  -0.014   8.286   0.746  1.6591 -0.9847  0.6982
 6542SOL    HW226478   0.099   8.364   0.658  1.8914 -0.7029  1.2391
 6543SOL     OW26479   8.660   7.416   1.321 -0.3342 -0.2587  0.0291
 6543SOL    HW126480   8.627   7.411   1.227 -2.2333  1.9539  0.5322
 6543SOL    HW226481   8.628   7.336   1.372  0.1759 -1.1443 -1.0331
 6544SOL     OW26482   0.570   8.091   2.440  0.1562 -0.6247 -0.1328
 6544SOL    HW126483   0.516   8.102   2.523  2.0478  2.9724  0.7215
 6544SOL    HW226484   0.651   8.036   2.460  0.9462  0.7748  0.6331
 6545SOL     OW26485   4.638   3.055   1.664 -0.2784 -0.3775  0.1013
 6545SOL    HW126486   4.585   3.008   1.594  1.9767 -0.5430 -1.5261
 6545SOL    HW226487   4.699   3.122   1.622 -1.5481  2.2394  2.1936
 6546SOL     OW26488  -0.000   4.147   1.853  0.2631  0.1960 -0.4313
 6546SOL    HW126489   0.028   4.219   1.789  0.5096 -1.0845 -1.7873
 6546SOL    HW226490   0.022   4.175   1.946  0.4906  1.8130 -0.9525
 6548SOL     OW26491   7.326   7.246   3.715  0.4008  0.3714 -0.4826
 6548SOL    HW126492   7.348   7.291   3.802  1.8806 -0.5372 -0.3730
 6548SOL    HW226493   7.371   7.295   3.640  3.5900 -1.9265 -0.1859
 6549SOL     OW26494   0.013   4.621   2.411  0.0824  0.6073 -0.3110
 6549SOL    HW126495  -0.036   4.651   2.329  2.4582  0.9573 -1.6464
 6549SOL    HW226496   0.039   4.525   2.402  0.0367  0.5509  0.1672
 6550SOL     OW26497   0.463   1.893   0.836 -0.2759 -0.0398  0.1050
 6550SOL    HW126498   0.487   1.819   0.898 -0.6960 -0.3555 -0.1057
 6550SOL    HW226499   0.507   1.878   0.747  0.3696  0.4403  0.3436
 6551SOL     OW26500   0.926   7.743   1.372  0.3298  0.0573  0.0064
 6551SOL    HW126501   0.876   7.660   1.397 -1.6316  1.1061 -0.3596
 6551SOL    HW226502   0.913   7.813   1.443  1.5133  0.2509  0.0452
 6552SOL     OW26503   3.038   5.036   3.473  0.1637 -0.1360 -0.2667
 6552SOL    HW126504   3.074   5.085   3.394 -0.1140 -0.1116 -0.3795
 6552SOL    HW226505   2.976   4.964   3.442  0.5470 -0.5386 -0.0992
 6553SOL     OW26506   2.585   0.494   3.728 -0.3968 -0.3547 -0.1751
 6553SOL    HW126507   2.660   0.530   3.672 -0.5348 -0.3087 -0.3293
 6553SOL    HW226508   2.606   0.399   3.754  0.4024  0.1344  1.0173
 6554SOL     OW26509   0.245   1.148   2.821  0.2314 -0.2241  0.7970
 6554SOL    HW126510   0.337   1.144   2.859  1.0819  0.2408 -1.1732
 6554SOL    HW226511   0.248   1.186   2.728 -2.0663  0.8402  1.1151
 6555SOL     OW26512   4.263   0.865   2.102  0.0786 -0.0992 -0.3535
 6555SOL    HW126513   4.228   0.859   2.008  0.7437  0.7199 -0.6602
 6555SOL    HW226514   4.362   0.879   2.100  0.1582 -0.4984  0.4823
 6556SOL     OW26515   1.848   4.348   0.714  0.2355  0.5925  0.2102
 6556SOL    HW126516   1.899   4.344   0.629  2.8478  1.2721  1.6850
 6556SOL    HW226517   1.834   4.443   0.740  0.8286  0.3935  1.2994
 6557SOL     OW26518   8.614   6.134   4.176 -0.1663  0.3657 -0.0437
 6557SOL    HW126519   8.617   6.234   4.165  0.6073  0.4880  1.1716
 6557SOL    HW226520   8.560   6.094   4.102  0.3589  1.6035 -1.1307
 6558SOL     OW26521   9.734   8.002   2.343 -0.2942 -0.8929  0.1647
 6558SOL    HW126522   9.685   8.088   2.329  1.7280  0.1812 -0.5699
 6558SOL    HW226523   9.736   7.950   2.257  0.7994 -0.4068 -0.1141
 6559SOL     OW26524   3.670   8.121   2.829  0.1789  0.5879 -0.1983
 6559SOL    HW126525   3.675   8.032   2.784  0.0210  0.8110 -0.6530
 6559SOL    HW226526   3.740   8.181   2.792  0.2212  0.6859  0.0407
 6560SOL     OW26527   9.943   4.963   1.257 -0.0460  0.1226  0.2009
 6560SOL    HW126528   9.972   4.957   1.353  1.5784  0.5468 -0.2448
 6560SOL    HW226529   9.890   4.882   1.233 -0.7780  0.1795  1.5478
 6561SOL     OW26530   2.887   4.170   4.432 -0.2959  0.7524 -0.0754
 6561SOL    HW126531   2.918   4.226   4.355  1.4715 -0.2833 -0.1420
 6561SOL    HW226532   2.958   4.165   4.501 -0.6239 -0.9656  0.1664
 6562SOL     OW26533   2.088   1.208   0.246  0.7967  0.7087 -0.4649
 6562SOL    HW126534   2.141   1.290   0.265  1.9001 -0.1666  0.3096
 6562SOL    HW226535   2.148   1.128   0.248 -0.4869 -0.2624  0.0557
 6563SOL     OW26536   3.459   6.897   2.696 -0.3836 -0.2884  0.6195
 6563SOL    HW126537   3.547   6.913   2.741 -0.5644  0.5993  0.6558
 6563SOL    HW226538   3.448   6.959   2.619  0.1672 -2.1824 -1.0272
 6564SOL     OW26539   8.315   0.682   0.431 -0.3389  0.2104  0.6652
 6564SOL    HW126540   8.319   0.695   0.332 -1.7854  0.2921  0.6056
 6564SOL    HW226541   8.329   0.585   0.453 -1.9883 -0.1420  0.2288
 6565SOL     OW26542   3.961   0.782   1.524 -0.0165  0.1552 -0.3003
 6565SOL    HW126543   3.881   0.764   1.466  1.3470 -2.1422 -1.5393
 6565SOL    HW226544   4.038   0.809   1.467  0.4448  1.1305  0.7750
 6566SOL     OW26545   7.054   1.792   2.740 -0.0428 -0.0532  0.1798
 6566SOL    HW126546   6.957   1.793   2.765 -0.1341 -0.2661 -0.1743
 6566SOL    HW226547   7.064   1.762   2.645  0.4306 -0.8370  0.4745
 6567SOL     OW26548   1.628   8.962   0.711  0.0469 -0.1614  0.4162
 6567SOL    HW126549   1.717   8.970   0.665  0.6118 -1.1719  1.3136
 6567SOL    HW226550   1.641   8.965   0.810 -0.9612  0.0355  0.5512
 6568SOL     OW26551   2.635   8.473   0.620  0.5473  0.1413  0.0387
 6568SOL    HW126552   2.635   8.373   0.620  4.0168  0.0468  1.9222
 6568SOL    HW226553   2.730   8.506   0.622 -0.5517  3.4630  0.7285
 6569SOL     OW26554   4.725   9.409   1.099  0.7299  0.2786 -0.2019
 6569SOL    HW126555   4.759   9.373   1.186  2.1294 -0.9509 -1.2130
 6569SOL    HW226556   4.686   9.335   1.045  2.0138  0.5629 -1.5749
 6570SOL     OW26557   1.041   9.240   1.372  0.1951 -0.0181  0.1744
 6570SOL    HW126558   1.137   9.248   1.345 -0.2482  0.9551 -1.1381
 6570SOL    HW226559   1.013   9.144   1.369  0.8410 -0.1884 -0.4050
 6571SOL     OW26560   2.840   5.450   1.834  0.1732  0.5634  0.3729
 6571SOL    HW126561   2.927   5.490   1.804  0.7850 -0.4798  0.7240
 6571SOL    HW226562   2.780   5.522   1.868  1.0378  1.2503  0.4655
 6572SOL     OW26563   8.549   8.711   1.603  0.4080 -0.2850 -0.0068
 6572SOL    HW126564   8.568   8.730   1.700  2.5914  0.4182 -0.5448
 6572SOL    HW226565   8.571   8.616   1.582 -2.3274 -1.1290  0.6937
 6573SOL     OW26566   3.889   8.274   2.165 -0.0083  0.7876  0.0007
 6573SOL    HW126567   3.920   8.193   2.215 -0.9923 -0.5712 -1.5458
 6573SOL    HW226568   3.952   8.294   2.091 -0.2947  0.8399 -0.2298
 6574SOL     OW26569   9.387   3.137   3.556 -0.6064 -0.1352  0.0841
 6574SOL    HW126570   9.441   3.123   3.473 -0.5893  1.6080 -0.2286
 6574SOL    HW226571   9.289   3.133   3.533 -0.6183  1.7979 -0.3323
 6575SOL     OW26572   3.875   0.040   0.348  0.7572 -0.2902 -0.1682
 6575SOL    HW126573   3.844   0.073   0.259 -0.0062  0.6611  0.4358
 6575SOL    HW226574   3.898   0.118   0.407 -1.3217 -0.7978  1.3754
 6576SOL     OW26575   7.993   6.483   0.126  0.1116  0.0295 -0.4780
 6576SOL    HW126576   7.931   6.483   0.047 -0.8652 -0.2164  0.2742
 6576SOL    HW226577   8.084   6.510   0.097 -0.6870  1.8952 -1.3515
 6577SOL     OW26578   7.849   9.247   1.825 -0.7791  0.2604  0.1600
 6577SOL    HW126579   7.757   9.264   1.789 -1.4228 -1.1411  1.1121
 6577SOL    HW226580   7.854   9.155   1.863  2.1209 -1.0771 -3.1993
 6578SOL     OW26581   5.258   3.857   0.657  0.0931  0.3266 -0.0072
 6578SOL    HW126582   5.273   3.897   0.567  1.3768 -0.0139  0.0468
 6578SOL    HW226583   5.266   3.928   0.727  3.9733 -0.2404  0.2238
 6580SOL     OW26584   4.738   0.428   2.852 -0.5284 -0.3844  0.4160
 6580SOL    HW126585   4.743   0.392   2.945 -0.9883  0.6641  0.8589
 6580SOL    HW226586   4.644   0.419   2.819 -0.6858  0.5512  0.5958
 6581SOL     OW26587   3.432   0.175   1.748 -0.1335  0.3650 -0.2258
 6581SOL    HW126588   3.345   0.184   1.798  0.6558  2.4755  0.7970
 6581SOL    HW226589   3.446   0.079   1.723 -1.8559 -0.2886  1.2435
 6582SOL     OW26590   9.717   5.542   0.898 -0.0516 -0.2133  0.0552
 6582SOL    HW126591   9.726   5.456   0.848 -0.0018 -0.8785  1.1702
 6582SOL    HW226592   9.789   5.549   0.967 -0.3474  0.4841  0.3059
 6583SOL     OW26593   4.949   8.825   3.548 -0.3884 -0.2224  0.0175
 6583SOL    HW126594   4.989   8.791   3.463  3.4875  3.5203  0.1429
 6583SOL    HW226595   5.014   8.810   3.623 -0.4257  3.2701  0.8455
 6584SOL     OW26596   3.920   1.074   0.410  0.2012 -0.3074 -0.1417
 6584SOL    HW126597   4.012   1.046   0.383  0.5547  0.7414 -0.0521
 6584SOL    HW226598   3.873   1.116   0.332  0.7973  1.6343  0.5048
 6585SOL     OW26599   0.912   7.871   3.046 -0.1063 -0.1681 -0.1686
 6585SOL    HW126600   0.962   7.940   2.994 -1.9138  0.6372 -0.8910
 6585SOL    HW226601   0.890   7.794   2.985 -1.4670  0.3832 -0.3918
 6586SOL     OW26602   2.346   2.475   3.888  0.8281 -0.1553  0.1728
 6586SOL    HW126603   2.401   2.558   3.899 -0.2963  0.4327  1.5568
 6586SOL    HW226604   2.250   2.500   3.875  1.0636 -1.1020 -4.0354
 6587SOL     OW26605   7.581   1.177   4.395  0.1984  0.4907  0.5639
 6587SOL    HW126606   7.652   1.121   4.439  0.1225 -0.7076 -0.8194
 6587SOL    HW226607   7.491   1.150   4.430  0.1741 -0.1571  0.0118
 6588SOL     OW26608   2.871   8.808   0.112 -0.4600 -0.3520  0.4013
 6588SOL    HW126609   2.932   8.888   0.109 -1.9495  0.8114  0.8306
 6588SOL    HW226610   2.866   8.767   0.021  0.2517  0.0737  0.1648
 6590SOL     OW26611   3.676   5.223   1.883 -0.0892 -0.2179 -0.1141
 6590SOL    HW126612   3.752   5.179   1.931  1.2506  1.7979 -0.2887
 6590SOL    HW226613   3.597   5.162   1.880  1.2761 -2.0523  0.7662
 6591SOL     OW26614   8.167   6.763   4.058 -0.2144 -0.3500  0.1223
 6591SOL    HW126615   8.119   6.705   4.124  1.5636 -1.2758  0.6354
 6591SOL    HW226616   8.138   6.740   3.966  0.8714 -2.4651  0.2819
 6592SOL     OW26617   4.338   2.638   2.221  0.6416  0.1948  0.1966
 6592SOL    HW126618   4.364   2.561   2.279 -2.3761 -1.7023 -0.8438
 6592SOL    HW226619   4.377   2.625   2.129  0.7944  0.3319  0.2413
 6594SOL     OW26620   1.056   6.218   2.417  0.0707 -0.0722 -0.8410
 6594SOL    HW126621   0.999   6.177   2.346 -1.7576 -0.6781  0.9397
 6594SOL    HW226622   1.139   6.163   2.429 -0.9423 -1.5516 -0.5630
 6597SOL     OW26623   5.690   1.150   3.306 -0.1077 -0.7005  0.0171
 6597SOL    HW126624   5.714   1.196   3.391  0.0005 -0.3753 -0.1896
 6597SOL    HW226625   5.607   1.096   3.320  0.0098 -0.7899  0.3769
 6598SOL     OW26626   5.089   1.475   0.214  0.2982 -0.2565 -0.0463
 6598SOL    HW126627   5.146   1.509   0.139 -0.9685 -0.4693 -1.1207
 6598SOL    HW226628   5.013   1.537   0.230 -0.3385 -1.0367  0.0012
 6600SOL     OW26629   0.303   4.678   1.429 -0.2634 -0.2219  0.7629
 6600SOL    HW126630   0.274   4.583   1.443  0.7498 -0.7574 -0.6873
 6600SOL    HW226631   0.259   4.715   1.347  0.5196  0.0802  0.4823
 6601SOL     OW26632   1.196   6.245   4.085 -0.2120  0.2218 -0.3391
 6601SOL    HW126633   1.282   6.197   4.100 -0.4732  0.2255  1.3047
 6601SOL    HW226634   1.215   6.339   4.057  0.3489  0.7250  1.6542
 6603SOL     OW26635   9.573   3.970   3.037  0.7440 -0.1509 -0.4231
 6603SOL    HW126636   9.520   4.052   3.016  2.4602  0.8430 -0.9781
 6603SOL    HW226637   9.568   3.950   3.134 -2.3094 -1.2661 -0.7496
 6604SOL     OW26638   7.114   1.778   1.949 -0.8672  0.1666  0.3524
 6604SOL    HW126639   7.078   1.842   1.882 -0.5287  1.8206  1.6984
 6604SOL    HW226640   7.162   1.829   2.021  3.4175 -1.8851 -0.9000
 6605SOL     OW26641   4.979   7.851   3.173  0.0216 -0.1436  0.5453
 6605SOL    HW126642   4.984   7.759   3.134 -1.6877  0.4709 -1.2589
 6605SOL    HW226643   4.915   7.851   3.249 -0.6787 -0.2811 -0.0344
 6606SOL     OW26644   1.627   1.223   1.385  0.3747  0.9774 -0.2884
 6606SOL    HW126645   1.553   1.198   1.448 -0.2884 -0.4608 -1.6151
 6606SOL    HW226646   1.594   1.219   1.291  2.3544 -0.4545 -0.9493
 6607SOL     OW26647   8.238   3.246   3.059  0.0041 -0.8077 -0.0979
 6607SOL    HW126648   8.269   3.152   3.077  1.6042  0.1952  2.6477
 6607SOL    HW226649   8.250   3.266   2.962  4.2245 -1.8910  0.0619
 6608SOL     OW26650   8.778   5.559   0.209 -0.0592  0.1238  0.4149
 6608SOL    HW126651   8.688   5.569   0.166 -0.1172 -0.5721  0.3738
 6608SOL    HW226652   8.777   5.602   0.299 -0.1815  0.8682  0.0603
 6609SOL     OW26653   5.018   8.119   3.410  0.0687 -0.0746 -0.2713
 6609SOL    HW126654   4.962   8.082   3.484 -0.3245 -0.9207 -0.9796
 6609SOL    HW226655   5.103   8.156   3.448 -0.3295 -0.0827  0.6483
 6610SOL     OW26656   5.485   7.170   2.169 -0.3103  0.3651 -0.1390
 6610SOL    HW126657   5.525   7.082   2.143  1.8925  1.6897 -1.3466
 6610SOL    HW226658   5.532   7.205   2.250 -0.4365  0.9550 -0.3205
 6611SOL     OW26659   2.131   4.510   3.531 -0.0359  0.1434  0.4624
 6611SOL    HW126660   2.043   4.552   3.552 -0.1557 -0.0331  0.3126
 6611SOL    HW226661   2.127   4.412   3.550  0.0329  0.0820  0.1716
 6612SOL     OW26662   0.835   3.088   2.706 -0.6309  0.2656 -0.1486
 6612SOL    HW126663   0.765   3.116   2.773 -1.3939 -0.9669 -0.4226
 6612SOL    HW226664   0.855   2.991   2.718  1.9140  0.8534  0.7141
 6613SOL     OW26665   5.740   0.670   1.147  0.7277  0.5546  0.3819
 6613SOL    HW126666   5.701   0.618   1.071 -0.0640  1.3658  0.2242
 6613SOL    HW226667   5.728   0.620   1.232  1.4049 -0.2513  0.0142
 6614SOL     OW26668   3.297   6.067   1.838  0.0268  0.2820  0.1025
 6614SOL    HW126669   3.284   6.049   1.936  0.3451  0.8030  0.2441
 6614SOL    HW226670   3.312   5.981   1.790  1.6513  0.1752  0.7850
 6615SOL     OW26671   6.009   8.880   2.354 -0.4321  0.3984  0.6625
 6615SOL    HW126672   6.051   8.892   2.264  0.8263  1.4310  1.3761
 6615SOL    HW226673   5.918   8.841   2.343  0.5270 -1.4792 -0.9359
 6616SOL     OW26674   2.485   8.910   2.848  0.2927 -0.1318  0.3869
 6616SOL    HW126675   2.504   8.878   2.755  0.5820  1.3552 -0.0795
 6616SOL    HW226676   2.564   8.892   2.907 -0.1602 -1.7193  0.5296
 6617SOL     OW26677   3.744   3.553   2.079  0.4201 -0.2034 -0.1882
 6617SOL    HW126678   3.788   3.643   2.076 -1.3265  0.8002  2.2967
 6617SOL    HW226679   3.727   3.528   2.174 -3.7926 -0.8096 -1.0066
 6618SOL     OW26680   4.417   5.884   0.866 -0.1719  0.4751 -0.0637
 6618SOL    HW126681   4.349   5.954   0.887  0.0275 -0.0231  2.3522
 6618SOL    HW226682   4.372   5.805   0.825 -0.8647  0.6863  0.2897
 6619SOL     OW26683   8.374   3.538   2.352 -0.5341 -0.1706  0.7143
 6619SOL    HW126684   8.451   3.597   2.328 -0.4976 -0.2855  0.5469
 6619SOL    HW226685   8.400   3.480   2.429 -0.1871 -0.7535  0.1609
 6620SOL     OW26686   4.688   2.853   2.196 -0.0304  0.0147 -0.0917
 6620SOL    HW126687   4.761   2.913   2.230 -0.2384  0.7644 -0.9600
 6620SOL    HW226688   4.602   2.904   2.193 -0.7030 -1.0016  1.3814
 6621SOL     OW26689   6.423   1.237   3.648 -0.0590 -0.0263 -0.7796
 6621SOL    HW126690   6.457   1.311   3.706  0.7517 -0.9212 -0.0866
 6621SOL    HW226691   6.365   1.275   3.576 -1.3185  1.0804  0.7763
 6623SOL     OW26692   2.191   1.576   2.816  0.1063 -0.3575  0.3234
 6623SOL    HW126693   2.183   1.477   2.824  1.8321 -0.3701  2.4024
 6623SOL    HW226694   2.287   1.602   2.822 -0.2522  1.4036 -0.9957
 6624SOL     OW26695   5.658   8.603   4.242 -0.2350 -0.4634 -1.0619
 6624SOL    HW126696   5.691   8.646   4.157  2.1377 -0.5299 -0.2027
 6624SOL    HW226697   5.735   8.562   4.291 -1.6846 -1.0065  0.8148
 6625SOL     OW26698   2.282   7.367   3.438 -0.1583  0.1735  0.3772
 6625SOL    HW126699   2.270   7.412   3.527  1.5751  1.0036  0.2025
 6625SOL    HW226700   2.211   7.297   3.427 -0.3866  0.0327  2.4318
 6626SOL     OW26701   9.635   6.434   1.283 -0.1844  0.4477 -0.3936
 6626SOL    HW126702   9.686   6.515   1.255  0.3855  0.2249 -0.0159
 6626SOL    HW226703   9.537   6.452   1.277 -0.0585  1.0770 -0.5607
 6627SOL     OW26704   7.306   8.663   2.535 -0.0683  0.1813  0.0988
 6627SOL    HW126705   7.316   8.762   2.543 -0.1409  0.0518  2.2088
 6627SOL    HW226706   7.215   8.642   2.500  0.8446  0.8987 -2.8300
 6629SOL     OW26707   9.940   5.798   3.222 -0.5553  0.0884 -0.5263
 6629SOL    HW126708   9.952   5.743   3.140 -0.1291 -0.3325 -0.1838
 6629SOL    HW226709   9.888   5.881   3.199 -1.1850 -0.4426 -1.0407
 6630SOL     OW26710   1.403   7.387   0.986 -0.3460  0.0578  0.4394
 6630SOL    HW126711   1.349   7.403   0.903 -0.3670  0.0150  0.4449
 6630SOL    HW226712   1.498   7.369   0.961 -0.5016 -0.6832  0.3851
 6631SOL     OW26713   9.220   9.602   3.029 -0.0218  0.1036  0.5116
 6631SOL    HW126714   9.171   9.624   2.945  2.4029  0.3023 -0.8957
 6631SOL    HW226715   9.297   9.542   3.008  0.5243  0.0256  2.6106
 6632SOL     OW26716   2.292   1.381   0.784  0.2275  0.4002  0.3932
 6632SOL    HW126717   2.196   1.407   0.780  0.6860  2.1985  0.7274
 6632SOL    HW226718   2.316   1.330   0.701 -0.7772  0.6967 -0.0907
 6633SOL     OW26719   4.114   7.020   3.102 -0.2710 -0.5608 -0.8114
 6633SOL    HW126720   4.127   7.100   3.043 -1.0373  2.1227  2.4799
 6633SOL    HW226721   4.200   6.997   3.146 -1.1808  2.0672  2.5276
 6634SOL     OW26722   4.166   8.636   0.362  0.1177  0.0919 -0.3465
 6634SOL    HW126723   4.214   8.553   0.393 -1.8212 -1.7900 -2.1768
 6634SOL    HW226724   4.209   8.671   0.280 -1.4710 -1.5351 -1.9281
 6635SOL     OW26725   9.046   0.373   2.160  0.0223  0.3421  0.4343
 6635SOL    HW126726   9.124   0.317   2.187 -1.2344 -0.3889  2.6662
 6635SOL    HW226727   8.961   0.322   2.175 -1.0421  2.1473  0.7264
 6637SOL     OW26728   4.761   3.560   2.373 -0.6316  0.0785 -0.1057
 6637SOL    HW126729   4.663   3.541   2.366 -0.9953  1.2546  1.4776
 6637SOL    HW226730   4.781   3.646   2.327 -0.6955  0.8128  1.2005
 6638SOL     OW26731   8.569   1.457   4.412 -0.3129  0.0903  0.2826
 6638SOL    HW126732   8.572   1.538   4.354  1.2613  0.1685  0.4335
 6638SOL    HW226733   8.517   1.385   4.367  0.6274  0.2537 -1.0967
 6639SOL     OW26734   8.768   7.097   2.900 -0.0116 -0.2370  0.1735
 6639SOL    HW126735   8.821   7.052   2.829  1.4260 -0.7283  1.5296
 6639SOL    HW226736   8.803   7.190   2.914 -0.3734 -0.0957  0.1446
 6640SOL     OW26737   2.543   7.564   2.960 -0.2498  0.0870 -0.2836
 6640SOL    HW126738   2.607   7.491   2.984  0.2927  0.4805 -0.5450
 6640SOL    HW226739   2.449   7.531   2.973 -0.0252 -1.0493 -1.5389
 6641SOL     OW26740   4.637   3.708   1.456 -0.3082 -0.1900 -0.1666
 6641SOL    HW126741   4.682   3.790   1.490 -0.1587 -0.5760  0.5767
 6641SOL    HW226742   4.538   3.721   1.456 -0.1996  0.7520 -2.0347
 6642SOL     OW26743   4.955   1.140   1.697 -0.1222  0.3343  0.3331
 6642SOL    HW126744   4.875   1.182   1.740  1.1006  3.4584 -0.2489
 6642SOL    HW226745   4.926   1.074   1.628 -2.2413  2.8677 -1.2885
 6644SOL     OW26746   4.258   8.709   2.088  0.5016 -0.1309  0.4185
 6644SOL    HW126747   4.324   8.737   2.018  0.8203 -1.4226  0.2037
 6644SOL    HW226748   4.232   8.614   2.074  0.3209 -0.3081  1.8637
 6645SOL     OW26749   8.263   5.100   3.601 -0.2646 -0.0703  0.5931
 6645SOL    HW126750   8.271   5.179   3.540  0.1139 -1.2916 -0.9447
 6645SOL    HW226751   8.170   5.064   3.598  0.3202 -1.4813 -0.9614
 6646SOL     OW26752   2.847   5.825   4.302 -0.5437 -0.2218 -0.1685
 6646SOL    HW126753   2.760   5.777   4.290  0.4299 -1.8261 -0.9551
 6646SOL    HW226754   2.922   5.759   4.298  0.7945  1.3044 -0.6945
 6648SOL     OW26755   4.386   7.750   2.394  0.4508 -0.4955 -0.0782
 6648SOL    HW126756   4.437   7.668   2.421 -1.8225 -1.9986 -0.2358
 6648SOL    HW226757   4.337   7.787   2.472  1.3325  0.6637 -0.0472
 6649SOL     OW26758   8.146   3.787   1.390  0.0260  0.3046 -0.7856
 6649SOL    HW126759   8.108   3.760   1.302  1.1414 -0.9905 -0.8903
 6649SOL    HW226760   8.220   3.854   1.375  2.0575 -1.9225 -1.0805
 6651SOL     OW26761   5.814   3.864   0.401  0.2860  0.1608 -0.1807
 6651SOL    HW126762   5.877   3.837   0.328  0.9977  0.4415  0.3240
 6651SOL    HW226763   5.838   3.955   0.434  0.7728 -0.4889  1.2836
 6652SOL     OW26764   1.497   3.292   4.366 -0.5415 -0.2131  0.3631
 6652SOL    HW126765   1.590   3.296   4.330 -0.3110 -0.4932  0.9226
 6652SOL    HW226766   1.435   3.258   4.295 -0.9051  3.6521 -1.2827
 6653SOL     OW26767   1.705   1.514   4.228  0.3796 -0.7257  0.8365
 6653SOL    HW126768   1.796   1.478   4.251  0.7714  0.1969  0.7935
 6653SOL    HW226769   1.689   1.503   4.130  0.2654 -1.2879  0.9193
 6654SOL     OW26770   8.739   9.568   3.138 -0.3253 -0.5460 -0.3577
 6654SOL    HW126771   8.679   9.491   3.163 -1.0694 -0.0370 -0.5571
 6654SOL    HW226772   8.834   9.544   3.158 -0.7027 -0.9181  1.0899
 6655SOL     OW26773   9.251   2.022   3.978 -0.2467 -0.6049  0.6248
 6655SOL    HW126774   9.246   1.953   3.906  1.7749 -0.6756  0.5051
 6655SOL    HW226775   9.260   2.113   3.937 -2.4356 -0.3128  0.7839
 6656SOL     OW26776   1.028   2.209   3.652 -0.3149 -0.0474  0.0874
 6656SOL    HW126777   0.984   2.136   3.705  0.1773 -0.5145 -0.1495
 6656SOL    HW226778   1.127   2.204   3.664 -0.3099  0.8511  0.4180
 6657SOL     OW26779   3.631   7.942   2.518  0.3069  0.7083 -0.2747
 6657SOL    HW126780   3.619   7.843   2.516  1.8181  0.4643  1.3383
 6657SOL    HW226781   3.549   7.987   2.482 -1.8164 -1.0342  2.2270
 6658SOL     OW26782   2.498   1.515   0.288  0.2049  0.6983  0.0770
 6658SOL    HW126783   2.452   1.575   0.222  0.2115 -0.9281 -1.4435
 6658SOL    HW226784   2.567   1.567   0.338 -1.4600  2.5416  0.5228
 6660SOL     OW26785   2.128   7.826   1.427  0.0425  0.4861  0.3995
 6660SOL    HW126786   2.058   7.862   1.488  0.2823  0.6113  0.6037
 6660SOL    HW226787   2.092   7.821   1.334 -0.2773  0.4256  0.5294
 6661SOL     OW26788   8.486   3.349   0.195  0.3771  0.1162 -0.5836
 6661SOL    HW126789   8.451   3.347   0.102 -3.7193 -0.8540  0.8921
 6661SOL    HW226790   8.465   3.437   0.237  1.0283  0.0558 -0.1095
 6664SOL     OW26791   4.562   0.108   3.539 -0.0414 -0.5491 -0.0622
 6664SOL    HW126792   4.633   0.045   3.507  1.8342  2.2700 -1.7050
 6664SOL    HW226793   4.554   0.102   3.638  3.1110 -0.4023  0.2683
 6665SOL     OW26794   8.819   6.679   1.033 -0.1245  0.4939  0.1322
 6665SOL    HW126795   8.790   6.733   0.953  0.5087  1.0674  0.2851
 6665SOL    HW226796   8.757   6.602   1.045 -1.2976  1.4226  0.1510
 6666SOL     OW26797   1.474   4.321   3.979  0.1760  0.4161  0.0907
 6666SOL    HW126798   1.457   4.413   4.012  0.8794  0.5748  0.0330
 6666SOL    HW226799   1.549   4.280   4.032 -1.8481 -1.0882  1.8525
 6667SOL     OW26800   2.994   0.227   0.706  0.1314 -0.2899 -0.7741
 6667SOL    HW126801   2.930   0.174   0.762 -0.1334 -0.1652 -0.9551
 6667SOL    HW226802   3.068   0.261   0.764 -1.3399  1.7569 -0.0258
 6669SOL     OW26803   7.643   0.511   4.436  0.2553 -0.3815  0.8909
 6669SOL    HW126804   7.738   0.484   4.452 -0.1269 -0.3517  3.3478
 6669SOL    HW226805   7.588   0.430   4.416  0.7851 -0.4002 -0.5162
 6670SOL     OW26806   7.923   2.155   0.817  0.6061  0.3125 -0.3227
 6670SOL    HW126807   8.010   2.197   0.844 -0.3466  2.0784  0.0534
 6670SOL    HW226808   7.865   2.224   0.774 -0.6250 -0.8623 -0.5678
 6671SOL     OW26809   0.454   1.558   0.122  0.3854 -0.2730  0.5502
 6671SOL    HW126810   0.513   1.634   0.150  0.3067 -0.5872  1.5896
 6671SOL    HW226811   0.490   1.516   0.039 -0.5351  2.0318 -1.0675
 6672SOL     OW26812   5.185   7.167   3.100 -0.1184  0.1461 -0.4094
 6672SOL    HW126813   5.093   7.137   3.075 -0.2931 -0.1160  0.5415
 6672SOL    HW226814   5.233   7.200   3.018 -1.4453  1.3541 -0.7110
 6673SOL     OW26815   9.816   0.157   2.934 -0.2902 -0.1861 -0.2244
 6673SOL    HW126816   9.790   0.097   2.858 -0.5272  1.3707 -1.3883
 6673SOL    HW226817   9.886   0.221   2.903 -2.0006  1.9557  0.2077
 6674SOL     OW26818   9.174   4.073   3.088  0.2502  0.0625 -0.5479
 6674SOL    HW126819   9.131   4.016   3.018  2.8123 -1.1713 -1.1799
 6674SOL    HW226820   9.132   4.164   3.088 -0.0059 -0.0147 -3.4682
 6675SOL     OW26821   2.011   2.264   0.055 -0.2297  0.0100  0.1405
 6675SOL    HW126822   2.083   2.306   0.111  0.3802  0.7205 -1.1468
 6675SOL    HW226823   1.942   2.223   0.114  0.1917  1.1031  1.4047
 6676SOL     OW26824   0.339   2.376   1.342  0.0429 -0.0013 -0.0781
 6676SOL    HW126825   0.371   2.281   1.350  0.8413  0.0885 -1.8968
 6676SOL    HW226826   0.278   2.397   1.418  0.3904 -1.7649  0.7206
 6677SOL     OW26827   3.857   8.637   2.412 -0.2134 -0.3953 -0.1925
 6677SOL    HW126828   3.856   8.733   2.440 -1.7232 -0.5811  0.4652
 6677SOL    HW226829   3.872   8.632   2.313 -1.0279  0.5770 -0.3887
 6678SOL     OW26830   3.805   2.083   2.779  0.2444  0.6446 -0.2013
 6678SOL    HW126831   3.819   2.000   2.726  1.2548  0.3664  0.4846
 6678SOL    HW226832   3.888   2.139   2.776  1.1112 -0.4026  2.8618
 6679SOL     OW26833   3.366   8.340   3.306  0.0757 -0.1700  0.7241
 6679SOL    HW126834   3.404   8.356   3.215 -0.4530  2.1003  0.8580
 6679SOL    HW226835   3.282   8.286   3.299 -1.4121  2.1924 -0.4440
 6680SOL     OW26836   8.666   7.717   1.344 -0.2695 -0.2880  0.1774
 6680SOL    HW126837   8.693   7.621   1.342  0.1309 -0.2524  2.5457
 6680SOL    HW226838   8.571   7.725   1.312 -0.0326 -1.3400 -0.8425
 6681SOL     OW26839   1.119   5.481   4.097 -0.4702  0.2550  0.0788
 6681SOL    HW126840   1.180   5.560   4.102  1.7667 -1.4049  0.1780
 6681SOL    HW226841   1.092   5.453   4.189  0.7067 -0.5052  0.2187
 6682SOL     OW26842   9.174   6.750   0.943 -0.1066 -0.0227  0.0530
 6682SOL    HW126843   9.232   6.705   1.011  1.2136  0.3629 -0.7999
 6682SOL    HW226844   9.223   6.755   0.855 -1.1231  1.0277 -0.4637
 6684SOL     OW26845   0.757   1.871   0.037 -0.1469 -0.2308 -0.4711
 6684SOL    HW126846   0.850   1.863  -0.000  1.0694 -0.5992  2.5165
 6684SOL    HW226847   0.724   1.964   0.024  1.5928  0.5518  0.5315
 6685SOL     OW26848   9.290   4.719   1.665 -0.0065  0.1949 -0.0854
 6685SOL    HW126849   9.269   4.637   1.612 -0.3326 -0.3065  0.8154
 6685SOL    HW226850   9.313   4.693   1.759 -0.2504  1.1443  0.2388
 6686SOL     OW26851   0.617   7.315   3.383 -0.1819  0.5527 -0.5254
 6686SOL    HW126852   0.585   7.221   3.368  0.8032 -0.0312  0.8880
 6686SOL    HW226853   0.712   7.323   3.353 -0.1687  1.0069 -0.3673
 6687SOL     OW26854   2.723   3.575   0.242  0.0542 -0.1154 -0.2629
 6687SOL    HW126855   2.728   3.486   0.197 -0.8753  0.3899 -1.3933
 6687SOL    HW226856   2.755   3.646   0.180 -1.5681  0.6271 -0.2858
 6688SOL     OW26857   3.983   2.590   0.852 -0.1015  0.0269  0.1889
 6688SOL    HW126858   4.073   2.593   0.895  1.2072 -1.0478 -2.3276
 6688SOL    HW226859   3.950   2.496   0.849  0.2268 -0.0664 -1.7911
 6689SOL     OW26860   4.749   1.926   3.059 -0.1093 -0.2938 -0.2865
 6689SOL    HW126861   4.712   1.849   3.007 -1.1158 -0.6230  0.9062
 6689SOL    HW226862   4.696   1.940   3.142  0.6078  1.1355 -0.0375
 6690SOL     OW26863   6.975   1.815   3.318 -0.2530 -0.2872 -0.1408
 6690SOL    HW126864   6.986   1.716   3.326 -1.4040 -0.2822  1.8293
 6690SOL    HW226865   6.913   1.836   3.243 -0.0140 -1.0516 -0.5568
 6691SOL     OW26866   1.030   7.231   1.296 -0.2828 -0.4357  0.2063
 6691SOL    HW126867   1.024   7.147   1.243 -1.4591  0.4190 -1.0591
 6691SOL    HW226868   1.106   7.286   1.262 -2.5263  1.2227 -2.2976
 6692SOL     OW26869   2.667   9.916   2.608  0.0505 -0.5145  0.4330
 6692SOL    HW126870   2.655   9.991   2.543  0.5486  1.0029  2.0622
 6692SOL    HW226871   2.750   9.931   2.662  0.6735 -2.7348  0.1452
 6693SOL     OW26872   0.617   4.192   3.654 -0.1308 -0.1553 -0.0414
 6693SOL    HW126873   0.677   4.117   3.625  2.3716  2.3891 -1.6008
 6693SOL    HW226874   0.538   4.195   3.593  0.5566 -0.5304 -0.9643
 6694SOL     OW26875   8.761   4.901   0.046 -0.4084 -0.0204  0.3100
 6694SOL    HW126876   8.852   4.934   0.073 -0.0981  1.1896 -2.0765
 6694SOL    HW226877   8.728   4.835   0.114  1.6309  0.5852  1.9525
 6695SOL     OW26878   8.523   0.432   1.318 -0.0954 -0.0856  0.4233
 6695SOL    HW126879   8.575   0.356   1.357  0.6424 -0.7771 -1.8089
 6695SOL    HW226880   8.430   0.401   1.297  0.0322 -0.2253  0.0497
 6696SOL     OW26881   7.853   2.892   0.116 -0.2424 -0.7481  0.4563
 6696SOL    HW126882   7.849   2.952   0.036 -1.0056 -0.6292  0.5792
 6696SOL    HW226883   7.939   2.906   0.164  0.8426 -1.8364 -1.1261
 6697SOL     OW26884   4.635   4.656   0.383 -0.4253 -0.0396 -0.1264
 6697SOL    HW126885   4.640   4.657   0.483  1.0953 -1.5495 -0.1744
 6697SOL    HW226886   4.597   4.743   0.352  0.1880  0.9236  1.7022
 6698SOL     OW26887   0.097   7.486   3.109  0.6385  0.2865 -0.2393
 6698SOL    HW126888   0.140   7.399   3.084  0.5646 -0.4013  1.9769
 6698SOL    HW226889   0.108   7.502   3.207 -0.2763  2.2800 -0.4397
 6701SOL     OW26890   3.046   2.029   2.384 -0.5209  0.4143  0.1990
 6701SOL    HW126891   2.948   2.022   2.398 -0.5706  3.6061  1.7842
 6701SOL    HW226892   3.065   2.065   2.293 -0.8016 -0.2170 -0.1130
 6702SOL     OW26893   0.936   2.450   3.601  0.0574 -0.0357 -0.2490
 6702SOL    HW126894   0.990   2.497   3.531  1.1481 -0.0064  0.5805
 6702SOL    HW226895   0.979   2.362   3.623 -1.6771 -1.1943 -1.4068
 6704SOL     OW26896   4.481   2.806   3.388  0.4029 -0.8524  0.6803
 6704SOL    HW126897   4.545   2.734   3.416  3.5905  1.5130 -0.1946
 6704SOL    HW226898   4.479   2.811   3.288 -1.1654 -0.9026  0.7049
 6705SOL     OW26899   8.616   5.433   1.046  0.4870 -0.3880  0.5046
 6705SOL    HW126900   8.649   5.386   1.128  1.0529  0.2082  0.6225
 6705SOL    HW226901   8.560   5.511   1.071  0.0511 -0.6397  0.3151
 6706SOL     OW26902   8.315   7.246   2.622 -0.1960 -0.1261  0.0418
 6706SOL    HW126903   8.386   7.190   2.577 -1.8942 -2.3788  0.0874
 6706SOL    HW226904   8.261   7.293   2.552  1.2191  1.5056  0.0022
 6707SOL     OW26905   1.351   3.518   4.324  1.3024 -0.4654 -1.0021
 6707SOL    HW126906   1.388   3.525   4.231  0.3368 -0.6580 -1.4042
 6707SOL    HW226907   1.405   3.451   4.376  0.7457 -1.6974 -1.9710
 6708SOL     OW26908   2.337   9.497   3.698  0.0065 -0.7078  0.0316
 6708SOL    HW126909   2.325   9.557   3.776 -1.2030 -2.2020  1.0257
 6708SOL    HW226910   2.376   9.410   3.728  3.7388  0.2601 -1.6781
 6709SOL     OW26911   7.455   0.410   3.724  0.3200 -0.1406  0.8320
 6709SOL    HW126912   7.452   0.481   3.794 -0.2487  0.3760  0.2885
 6709SOL    HW226913   7.380   0.346   3.737  0.6464 -0.4654  1.1320
 6711SOL     OW26914   0.854   5.910   3.598 -0.1466 -0.4108 -0.4424
 6711SOL    HW126915   0.838   5.812   3.596 -2.2580 -0.0587 -1.6579
 6711SOL    HW226916   0.820   5.948   3.684  0.4198 -0.6805 -0.0929
 6712SOL     OW26917   6.786   0.753   3.762  0.0635 -0.2748 -0.0710
 6712SOL    HW126918   6.689   0.746   3.742  0.3087 -0.9637 -1.0408
 6712SOL    HW226919   6.838   0.691   3.703  1.1323  0.3772  0.1548
 6713SOL     OW26920   1.923   0.280   0.777 -0.2956  0.1702  0.0639
 6713SOL    HW126921   1.956   0.187   0.758 -0.0535  0.2781 -0.0469
 6713SOL    HW226922   2.001   0.340   0.796 -0.6244 -0.2415  2.8143
 6715SOL     OW26923   2.703   6.030   4.001 -0.3102 -0.2243  0.2533
 6715SOL    HW126924   2.706   5.940   3.957 -3.0745 -0.1192 -0.2425
 6715SOL    HW226925   2.682   6.019   4.098 -0.1501 -0.1428  0.2969
 6716SOL     OW26926   4.666   9.288   3.510  0.5430  0.5739 -0.0065
 6716SOL    HW126927   4.621   9.264   3.596  2.8033  1.6424  1.5034
 6716SOL    HW226928   4.755   9.243   3.505 -0.7572 -1.8802 -3.1756
 6717SOL     OW26929   9.131   7.650   0.742  0.3212  0.2074  0.1034
 6717SOL    HW126930   9.216   7.625   0.789  2.0326  2.1449 -1.8599
 6717SOL    HW226931   9.065   7.686   0.808  1.0898 -1.1192  1.6174
 6718SOL     OW26932   3.113   9.598   3.356  0.1571 -0.0772  0.4078
 6718SOL    HW126933   3.143   9.555   3.441 -0.4759 -4.3114 -1.4087
 6718SOL    HW226934   3.181   9.580   3.285 -1.7796 -1.0298 -1.2213
 6720SOL     OW26935   8.401   4.679   1.776  0.3287 -0.8219 -0.4136
 6720SOL    HW126936   8.315   4.638   1.745  1.0412 -2.2282 -0.6048
 6720SOL    HW226937   8.463   4.687   1.698  0.3486  0.2323 -0.2872
 6721SOL     OW26938   5.377   0.408   3.461 -0.3691 -0.3393 -0.2229
 6721SOL    HW126939   5.392   0.318   3.502 -1.9426 -0.3321  0.3883
 6721SOL    HW226940   5.299   0.404   3.398 -0.4208  0.5868 -0.2269
 6722SOL     OW26941   2.865   1.518   1.665 -0.0758  0.6175  0.2677
 6722SOL    HW126942   2.810   1.457   1.723 -0.9455  0.4705 -0.6856
 6722SOL    HW226943   2.804   1.570   1.605  0.8961 -0.4932 -1.7129
 6723SOL     OW26944   8.719   0.659   0.485 -0.2276 -0.6090 -0.1849
 6723SOL    HW126945   8.625   0.633   0.463 -1.3648  2.4795  0.7252
 6723SOL    HW226946   8.773   0.666   0.401 -0.8778 -2.0881 -0.7383
 6724SOL     OW26947   9.949   9.145   4.344  0.1361 -0.3215  0.4178
 6724SOL    HW126948   9.957   9.135   4.245  0.0437  0.7612  0.2879
 6724SOL    HW226949  10.040   9.142   4.386  0.1347 -1.2971  0.3599
 6726SOL     OW26950   5.699   0.577   3.813  0.2017  0.0036 -0.0777
 6726SOL    HW126951   5.698   0.660   3.756 -2.6550 -1.0606 -1.6499
 6726SOL    HW226952   5.743   0.598   3.900  1.7506  2.5299 -1.3926
 6727SOL     OW26953   6.262   0.310   1.206  0.3612  0.3191  0.4241
 6727SOL    HW126954   6.187   0.298   1.142  0.9523  0.4193 -0.2997
 6727SOL    HW226955   6.243   0.261   1.291  0.3875 -1.3379 -0.5088
 6728SOL     OW26956   1.233   7.787   2.839  0.0668 -0.2850  0.0064
 6728SOL    HW126957   1.318   7.772   2.789  0.8419  0.0574  1.2002
 6728SOL    HW226958   1.158   7.739   2.794  1.0120 -1.0934 -0.7011
 6729SOL     OW26959   0.693   5.096   2.956  0.5900 -0.1391 -0.1711
 6729SOL    HW126960   0.678   5.193   2.939  1.7863  0.1306  0.2297
 6729SOL    HW226961   0.735   5.054   2.875  1.2568 -0.0319  0.1099
 6730SOL     OW26962   0.381   5.108   0.683  0.6593  0.2677 -0.0671
 6730SOL    HW126963   0.317   5.138   0.611  0.7968 -0.2900 -0.4241
 6730SOL    HW226964   0.448   5.180   0.700 -0.5126  1.1539  0.8345
 6731SOL     OW26965   2.440   4.738   3.336 -0.2681 -0.2429 -0.4077
 6731SOL    HW126966   2.522   4.713   3.285 -1.4844 -1.6706 -1.7339
 6731SOL    HW226967   2.385   4.800   3.280 -0.5153  0.0012  0.1104
 6732SOL     OW26968   4.759   4.565   1.291  0.0973 -0.0965 -0.1290
 6732SOL    HW126969   4.681   4.627   1.287  0.1852  0.0742  0.7752
 6732SOL    HW226970   4.746   4.499   1.365  0.1952 -0.9063 -0.8206
 6733SOL     OW26971   3.869   2.085   3.357 -0.2093 -0.5006  0.2845
 6733SOL    HW126972   3.844   2.077   3.261  0.9625 -1.4218  0.0433
 6733SOL    HW226973   3.968   2.085   3.366 -0.3113 -1.1354  1.5497
 6734SOL     OW26974   1.203   9.872   2.022  0.0913  0.4700 -1.2635
 6734SOL    HW126975   1.279   9.937   2.015  0.6792 -0.0229  0.2408
 6734SOL    HW226976   1.239   9.782   2.047 -0.9449  0.1084 -1.0527
 6735SOL     OW26977   3.182   4.927   2.601 -0.2935  0.3756  0.1773
 6735SOL    HW126978   3.157   4.961   2.510 -1.9682 -1.9002 -0.2500
 6735SOL    HW226979   3.244   4.848   2.591 -1.1352 -0.3974  0.9669
 6736SOL     OW26980   7.111   0.156   1.270  0.2768  0.5692  0.6204
 6736SOL    HW126981   7.128   0.079   1.332 -1.1160 -0.0823  0.2196
 6736SOL    HW226982   7.183   0.158   1.200  1.0312  0.4172  1.3775
 6737SOL     OW26983   4.462   1.251   3.034 -0.4130 -0.3010  0.5849
 6737SOL    HW126984   4.475   1.171   3.092 -1.0576 -0.5216  0.4273
 6737SOL    HW226985   4.551   1.294   3.017 -0.1645 -0.5117  1.3312
 6738SOL     OW26986   0.888   7.964   1.521  0.1185  0.1251 -0.0156
 6738SOL    HW126987   0.933   8.053   1.518  1.6391 -0.6583 -0.9669
 6738SOL    HW226988   0.851   7.949   1.613  0.1194  1.5910  0.2415
 6739SOL     OW26989   8.585   4.372   2.006 -0.1535  0.2760  0.4271
 6739SOL    HW126990   8.568   4.470   2.019  0.6299  0.3935  0.5764
 6739SOL    HW226991   8.634   4.358   1.920 -0.9631 -0.0562  0.0172
 6740SOL     OW26992   2.733   7.337   2.967 -0.5807  0.5599  0.2446
 6740SOL    HW126993   2.780   7.249   2.962 -2.5253 -0.3845 -2.8148
 6740SOL    HW226994   2.792   7.409   2.931 -0.0597  0.0393  0.0551
 6741SOL     OW26995   3.880   2.114   3.090 -0.0950 -0.1086  0.4972
 6741SOL    HW126996   3.954   2.049   3.073  0.8553  0.8494  0.9589
 6741SOL    HW226997   3.818   2.115   3.012  1.2846  0.2919 -0.6141
 6742SOL     OW26998   8.439   4.642   3.967  0.0705 -0.3444 -0.3068
 6742SOL    HW126999   8.380   4.573   4.009  1.1633 -1.7725 -1.0562
 6742SOL    HW227000   8.494   4.599   3.895  2.5761  0.7900  0.8878
 6743SOL     OW27001   5.859   7.947   1.827  0.3266 -0.8253 -0.4569
 6743SOL    HW127002   5.791   7.877   1.847  1.8385 -2.2588 -0.1594
 6743SOL    HW227003   5.857   8.018   1.898 -0.1826 -1.3636  0.0670
 6745SOL     OW27004   9.459   9.071   3.332 -0.2403 -0.2571 -0.1122
 6745SOL    HW127005   9.383   9.011   3.308 -0.3714 -0.5105  0.9334
 6745SOL    HW227006   9.447   9.105   3.425  0.6277  0.1536 -0.1473
 6747SOL     OW27007   2.079   5.217   1.600  0.2016  0.0903  0.5921
 6747SOL    HW127008   2.068   5.122   1.630 -0.2867 -0.6169 -1.7276
 6747SOL    HW227009   2.176   5.237   1.586  0.3091 -0.0498  1.1378
 6748SOL     OW27010   7.182   9.225   3.777 -0.6880 -0.2274 -0.0590
 6748SOL    HW127011   7.167   9.152   3.843 -0.7469 -0.2365 -0.0836
 6748SOL    HW227012   7.126   9.304   3.801 -1.6081 -0.6473 -0.7553
 6749SOL     OW27013   8.748   7.802   3.212  0.0974  0.1905 -0.1343
 6749SOL    HW127014   8.847   7.806   3.196  0.5424 -2.2054  1.7349
 6749SOL    HW227015   8.725   7.856   3.292 -0.0807  0.5034 -0.3933
 6752SOL     OW27016   8.411   7.900   3.442  0.1111 -0.1655  0.2167
 6752SOL    HW127017   8.381   7.843   3.365 -1.0840 -0.5993  1.0024
 6752SOL    HW227018   8.511   7.895   3.449  0.0392 -2.0928  0.2058
 6753SOL     OW27019   0.265   7.733   2.171 -0.9527 -0.1922  0.8496
 6753SOL    HW127020   0.260   7.643   2.215  0.2259 -0.3330  0.7090
 6753SOL    HW227021   0.291   7.802   2.239  1.6702 -0.5383  0.2203
 6755SOL     OW27022   8.791   4.808   0.478 -0.0736 -0.0974  0.2381
 6755SOL    HW127023   8.754   4.900   0.465  1.0162  0.4267  0.7751
 6755SOL    HW227024   8.773   4.753   0.397  2.7501  1.7962 -1.7984
 6756SOL     OW27025   4.994   3.372   1.773  0.1513  0.6570  0.8004
 6756SOL    HW127026   5.086   3.403   1.796  1.0542 -0.9281 -0.5477
 6756SOL    HW227027   4.930   3.401   1.844  1.5658  2.3831  1.3999
 6759SOL     OW27028   7.645   1.537   2.861 -0.1907 -0.2976 -0.4944
 6759SOL    HW127029   7.582   1.482   2.806  0.4952  0.2806 -1.8860
 6759SOL    HW227030   7.598   1.619   2.894 -1.4403 -2.0457  2.2304
 6760SOL     OW27031   6.694   8.339   3.763 -0.0615  0.6819 -0.0148
 6760SOL    HW127032   6.742   8.390   3.835  0.6875  0.3590 -0.2893
 6760SOL    HW227033   6.595   8.350   3.776  0.0797  3.6170 -1.0500
 6761SOL     OW27034   1.657   8.389   1.012  0.4024  0.4706  0.1173
 6761SOL    HW127035   1.719   8.341   0.950  1.1579  0.7145  0.6809
 6761SOL    HW227036   1.693   8.386   1.105 -1.3325 -0.9697  0.7829
 6762SOL     OW27037   2.405   4.376   1.953  0.0908 -0.3661 -0.8005
 6762SOL    HW127038   2.454   4.457   1.918  0.8681 -0.5762 -0.1990
 6762SOL    HW227039   2.471   4.313   1.993 -0.6992 -0.6018  0.1112
 6763SOL     OW27040   2.204   7.085   1.968  0.4183  0.1090  0.6664
 6763SOL    HW127041   2.221   7.160   2.032  0.9056 -2.0027  3.0633
 6763SOL    HW227042   2.105   7.071   1.960  0.2507  2.0858 -1.1160
 6765SOL     OW27043   1.612   7.181   3.073  0.0605 -0.1418 -0.4135
 6765SOL    HW127044   1.634   7.276   3.095  0.1409  0.0095 -1.1230
 6765SOL    HW227045   1.522   7.177   3.030 -0.0160 -0.4103 -0.2313
 6766SOL     OW27046   7.615   4.555   0.420 -0.4546 -0.1566 -0.0189
 6766SOL    HW127047   7.688   4.623   0.415  0.6246 -1.3611 -0.8443
 6766SOL    HW227048   7.618   4.510   0.509 -0.1181 -0.2834 -0.0937
 6767SOL     OW27049   8.132   7.608   3.113 -0.0373  0.6101 -0.0751
 6767SOL    HW127050   8.053   7.656   3.075 -0.4994  0.1282  0.2560
 6767SOL    HW227051   8.106   7.566   3.201  0.9271  1.4644  0.6286
 6768SOL     OW27052   0.260   9.961   1.392 -0.0360 -0.4328 -0.0127
 6768SOL    HW127053   0.215  10.038   1.438 -1.2431 -0.0441 -1.7662
 6768SOL    HW227054   0.191   9.894   1.365  0.6864 -0.8542 -0.8510
 6769SOL     OW27055   4.678   1.574   0.554 -0.4944 -0.2981  0.0373
 6769SOL    HW127056   4.655   1.637   0.628 -1.6350 -0.1621 -0.4211
 6769SOL    HW227057   4.748   1.510   0.585 -1.3701 -0.6032  1.4179
 6770SOL     OW27058   2.212   6.971   3.098  0.1598  0.1521  0.8262
 6770SOL    HW127059   2.119   6.951   3.129 -0.5164  2.4822  0.3827
 6770SOL    HW227060   2.209   7.040   3.026  2.1196 -1.0885 -0.5073
 6772SOL     OW27061   3.069   2.142   3.590  0.4171  0.1356  0.1011
 6772SOL    HW127062   3.131   2.084   3.643 -0.9510 -1.1209  0.3738
 6772SOL    HW227063   3.032   2.090   3.513 -0.6998  0.6828  0.2530
 6773SOL     OW27064   9.609   8.602   0.255 -0.3665 -0.3568 -0.3547
 6773SOL    HW127065   9.554   8.586   0.338 -0.6965 -0.2864 -0.5579
 6773SOL    HW227066   9.639   8.514   0.218  0.1389 -0.3701  0.0754
 6774SOL     OW27067   8.685   3.682   0.447 -0.3626 -0.4829  0.1677
 6774SOL    HW127068   8.624   3.635   0.510 -1.4816  1.8414  0.8638
 6774SOL    HW227069   8.709   3.772   0.483  0.9942 -0.1007 -1.5598
 6775SOL     OW27070   6.442   0.824   4.381 -0.3890 -0.2535 -0.4719
 6775SOL    HW127071   6.485   0.744   4.423 -1.1919 -0.6807 -0.4678
 6775SOL    HW227072   6.477   0.907   4.425  0.1794 -0.6128 -0.2387
 6777SOL     OW27073   0.282   0.754   2.615  0.0990  0.3192  0.3104
 6777SOL    HW127074   0.317   0.671   2.572  0.6817  1.3092 -1.1565
 6777SOL    HW227075   0.323   0.765   2.705  0.7512 -0.4727  0.1117
 6778SOL     OW27076   2.644   4.468   1.496 -0.0647 -0.0807 -0.0121
 6778SOL    HW127077   2.563   4.427   1.456 -1.4785 -1.0608  3.6778
 6778SOL    HW227078   2.667   4.422   1.582  1.8078  2.9937  1.2459
 6779SOL     OW27079   3.548   0.420   0.673  0.4184  0.2100  0.3049
 6779SOL    HW127080   3.497   0.469   0.602  1.3158  0.2882 -0.2843
 6779SOL    HW227081   3.512   0.327   0.681 -1.5183  1.0443  1.6639
 6780SOL     OW27082   8.971   2.784   0.603  0.5651  0.0151 -0.0394
 6780SOL    HW127083   8.905   2.858   0.620 -0.2320 -0.3360 -1.5020
 6780SOL    HW227084   9.019   2.762   0.687 -0.5666  0.8931  0.8505
 6781SOL     OW27085   1.810   3.690   3.194  0.2684 -0.0732 -0.0380
 6781SOL    HW127086   1.773   3.780   3.175 -0.4997 -0.2671  0.5496
 6781SOL    HW227087   1.910   3.696   3.200  0.4394  0.2839 -2.5184
 6782SOL     OW27088   2.761   3.429   3.586  0.5970 -0.7609  0.3015
 6782SOL    HW127089   2.780   3.452   3.491  0.0571 -3.3073 -0.4730
 6782SOL    HW227090   2.662   3.430   3.602  0.8106  3.3926  1.8880
 6783SOL     OW27091   9.712   4.620   4.155  0.4646 -0.2669 -0.4489
 6783SOL    HW127092   9.796   4.657   4.115 -0.8576 -0.4134 -3.4318
 6783SOL    HW227093   9.690   4.671   4.238  2.4842  0.9805 -0.6327
 6784SOL     OW27094   8.307   1.214   2.488  0.1717  0.1585 -0.2236
 6784SOL    HW127095   8.324   1.205   2.390 -0.2615  0.7112 -0.3484
 6784SOL    HW227096   8.278   1.126   2.525  1.4896 -0.3500 -0.3575
 6785SOL     OW27097   2.931   6.755   0.422 -0.0696  0.7391  0.0033
 6785SOL    HW127098   2.873   6.692   0.474  1.5882  0.2923  1.3404
 6785SOL    HW227099   2.900   6.757   0.326 -1.6311 -0.2605  0.4626
 6786SOL     OW27100   0.394   0.890   3.765 -0.3632  0.1657  0.1260
 6786SOL    HW127101   0.430   0.917   3.854 -0.3370 -2.8035  1.0662
 6786SOL    HW227102   0.463   0.836   3.716 -2.1241 -2.4146  0.3992
 6788SOL     OW27103   3.051   5.046   3.738 -0.0321 -0.0770  0.8050
 6788SOL    HW127104   2.986   4.985   3.784 -1.1802  0.5067 -0.0464
 6788SOL    HW227105   3.036   5.043   3.640 -0.4549  2.0062  0.8016
 6789SOL     OW27106   7.365   4.213   0.753  0.4673  0.6038  0.4324
 6789SOL    HW127107   7.407   4.165   0.831 -0.9199 -2.3661 -0.5651
 6789SOL    HW227108   7.385   4.163   0.669 -0.7988  1.9643 -0.7028
 6790SOL     OW27109   7.368   6.233   2.614 -0.3680  0.1496  0.7275
 6790SOL    HW127110   7.289   6.228   2.553  0.0806 -0.9180  0.2159
 6790SOL    HW227111   7.421   6.315   2.593  0.9273 -1.2693 -1.7819
 6792SOL     OW27112   1.296   5.706   3.616  0.1444  0.3232 -0.4983
 6792SOL    HW127113   1.377   5.733   3.565  0.7923 -2.2865 -0.8950
 6792SOL    HW227114   1.230   5.781   3.616  1.0768  1.1788 -3.2039
 6793SOL     OW27115   3.405   3.182   0.098 -0.6448 -0.0704 -0.0381
 6793SOL    HW127116   3.399   3.254   0.167 -0.3574 -0.0110 -0.0730
 6793SOL    HW227117   3.321   3.128   0.098 -0.4066 -0.4421  0.7572
 6794SOL     OW27118   9.277   6.689   3.980 -0.2347 -0.3309 -0.1475
 6794SOL    HW127119   9.360   6.741   4.002  1.0578 -2.1401 -0.6283
 6794SOL    HW227120   9.290   6.593   4.007 -1.4889 -1.0025 -1.8605
 6797SOL     OW27121   4.546   5.069   1.583  0.0094  0.1130 -0.5072
 6797SOL    HW127122   4.535   5.117   1.670 -0.1154 -0.6377 -0.0999
 6797SOL    HW227123   4.592   5.128   1.517 -2.8067  1.8963 -0.9638
 6798SOL     OW27124   9.901   0.303   0.541  0.0037  0.1202  0.3003
 6798SOL    HW127125   9.999   0.315   0.553 -0.0277  0.2630  0.4045
 6798SOL    HW227126   9.854   0.320   0.627 -0.0005 -1.2458  0.5766
 6799SOL     OW27127   1.648   8.503   0.323  0.2366  0.0666  0.2871
 6799SOL    HW127128   1.717   8.477   0.256  0.7740 -2.3802  1.7401
 6799SOL    HW227129   1.569   8.443   0.315 -1.1069  1.8800 -0.3286
 6801SOL     OW27130   2.165   9.414   4.365  0.2430  0.0556 -0.2283
 6801SOL    HW127131   2.136   9.326   4.328 -0.0759 -0.5126  1.3312
 6801SOL    HW227132   2.264   9.414   4.377  0.1758 -0.3426  0.3757
 6802SOL     OW27133   2.101   9.220   0.834 -0.2207  0.1090 -0.7344
 6802SOL    HW127134   2.002   9.227   0.836 -0.3629 -1.5810  2.6910
 6802SOL    HW227135   2.141   9.312   0.828 -1.9919  1.0528  1.2700
 6804SOL     OW27136   1.737   8.021   1.775 -0.5969 -0.5521 -0.1023
 6804SOL    HW127137   1.759   7.988   1.867 -2.6495  1.1222  1.0270
 6804SOL    HW227138   1.659   8.083   1.779 -1.6302 -1.5360 -3.1842
 6806SOL     OW27139   1.807   5.068   3.030  0.0188  0.3437  0.6497
 6806SOL    HW127140   1.868   4.994   2.999 -0.4290  0.6354 -0.9704
 6806SOL    HW227141   1.837   5.100   3.120  1.0082 -0.9186  0.7921
 6807SOL     OW27142   1.527   4.876   3.465 -0.1756  0.8592  0.3891
 6807SOL    HW127143   1.535   4.965   3.510 -0.6223  1.2508 -0.2914
 6807SOL    HW227144   1.618   4.838   3.450  0.0785  1.8173 -0.5078
 6808SOL     OW27145   4.011   4.296   1.142 -0.3437 -0.0832  0.1252
 6808SOL    HW127146   4.004   4.206   1.185 -1.4689  0.1980  0.5542
 6808SOL    HW227147   4.103   4.334   1.156  0.2904 -1.3760 -0.4925
 6810SOL     OW27148   2.592   8.179   1.250 -0.4082 -0.6337  0.4355
 6810SOL    HW127149   2.647   8.210   1.173 -0.5826  1.7498  1.2178
 6810SOL    HW227150   2.526   8.111   1.219 -1.2881  1.1824 -1.7481
 6811SOL     OW27151   2.530   5.303   3.511 -0.0511  0.3622 -0.9265
 6811SOL    HW127152   2.526   5.204   3.526 -1.6612  0.4163 -0.9308
 6811SOL    HW227153   2.517   5.323   3.414  0.7704  0.5572 -1.0006
 6812SOL     OW27154   1.451   8.112   3.618  0.0049  0.0972  0.3735
 6812SOL    HW127155   1.487   8.107   3.524  3.0744  1.7449  1.3924
 6812SOL    HW227156   1.415   8.204   3.634 -0.3606 -0.1349  0.8613
 6813SOL     OW27157   8.359   3.867   1.035  0.6889  0.4623 -0.0105
 6813SOL    HW127158   8.315   3.956   1.045  0.5309  0.1966  1.9110
 6813SOL    HW227159   8.458   3.878   1.031  0.7658  0.6444  1.8283
 6814SOL     OW27160   6.061   0.669   2.570  0.4689  0.1924 -0.2659
 6814SOL    HW127161   6.144   0.614   2.559  0.1699 -0.0952 -1.1135
 6814SOL    HW227162   6.086   0.761   2.599  0.9967 -0.2649  0.7879
 6815SOL     OW27163   5.709   0.892   1.780 -0.4633  0.3419 -0.6485
 6815SOL    HW127164   5.753   0.811   1.742  0.2897  1.1237 -1.4782
 6815SOL    HW227165   5.701   0.962   1.708  1.8702  2.2198  0.8285
 6816SOL     OW27166   2.064   9.644   4.210  0.2126  0.6351  0.3028
 6816SOL    HW127167   1.965   9.654   4.221  0.0427 -1.9507  1.4543
 6816SOL    HW227168   2.092   9.554   4.243  2.5865  0.3222 -2.3844
 6817SOL     OW27169   8.577   4.502   3.767  0.6381 -0.2005  0.4615
 6817SOL    HW127170   8.593   4.429   3.701 -0.6361 -0.2636  0.1959
 6817SOL    HW227171   8.596   4.591   3.725 -1.2935 -0.1613 -0.3978
 6818SOL     OW27172   7.825   0.174   0.350 -0.1384  0.1154  0.1186
 6818SOL    HW127173   7.740   0.191   0.399 -0.1617  0.3266  0.0051
 6818SOL    HW227174   7.879   0.258   0.346 -0.8923  0.5338 -1.6934
 6819SOL     OW27175   8.450   5.194   3.167 -0.3405 -0.5010  0.3072
 6819SOL    HW127176   8.423   5.134   3.091  0.4952 -0.5265  0.0281
 6819SOL    HW227177   8.473   5.138   3.247 -3.1146 -0.4090  1.2205
 6820SOL     OW27178   8.442   6.577   4.109 -0.0265 -0.3992 -0.0545
 6820SOL    HW127179   8.482   6.667   4.125 -0.5068 -0.2579  0.3391
 6820SOL    HW227180   8.367   6.561   4.173  0.7788 -1.5339  0.6460
 6821SOL     OW27181   5.646   7.445   1.534 -0.4448  0.2746  0.8392
 6821SOL    HW127182   5.580   7.520   1.519  0.0712  0.4828 -0.4708
 6821SOL    HW227183   5.739   7.479   1.520 -0.2379 -0.7536 -0.3710
 6822SOL     OW27184   2.494   6.105   0.872  0.0865 -0.1840  0.3309
 6822SOL    HW127185   2.470   6.015   0.838  0.9467 -0.3465  0.1557
 6822SOL    HW227186   2.547   6.155   0.803  1.1956 -0.2425  1.1166
 6824SOL     OW27187   7.775   3.519   0.364  0.2314 -0.3217  0.2742
 6824SOL    HW127188   7.691   3.491   0.411 -0.0052  0.1142  0.1115
 6824SOL    HW227189   7.847   3.535   0.432 -0.6903  2.3515  0.6958
 6825SOL     OW27190   2.141   8.467   0.555 -0.0800 -0.5562 -0.1113
 6825SOL    HW127191   2.046   8.469   0.586  0.7888 -1.2311  2.8282
 6825SOL    HW227192   2.164   8.553   0.510 -1.7500  0.0588  0.1701
 6826SOL     OW27193   5.532   0.529   1.384  0.1638  0.1673  0.5840
 6826SOL    HW127194   5.549   0.561   1.478 -0.2323 -1.2869  1.1610
 6826SOL    HW227195   5.475   0.596   1.336  1.4057  1.5322  0.9672
 6827SOL     OW27196   9.390   8.311   1.898  0.0424 -0.1487  0.4487
 6827SOL    HW127197   9.373   8.238   1.832 -0.7051 -0.0192  0.4994
 6827SOL    HW227198   9.348   8.288   1.986  0.1584  0.1493  0.5851
 6828SOL     OW27199   1.271   1.262   3.857 -0.2325  0.4958  0.7401
 6828SOL    HW127200   1.273   1.166   3.826 -0.9675  0.7911 -0.2627
 6828SOL    HW227201   1.215   1.315   3.794  0.3331  1.6313  1.1948
 6829SOL     OW27202   7.939   0.857   2.528  0.6904  0.1426  0.0330
 6829SOL    HW127203   7.963   0.866   2.431  0.9036 -0.2089  0.0530
 6829SOL    HW227204   7.945   0.947   2.572  2.5116 -0.0354  0.1647
 6830SOL     OW27205   3.061   5.465   0.278  0.3392 -0.1966 -0.0715
 6830SOL    HW127206   3.059   5.478   0.378 -0.2947  0.8345 -0.2015
 6830SOL    HW227207   3.030   5.550   0.234  2.6809  0.0974 -1.2160
 6831SOL     OW27208   2.289   4.891   3.548  0.3988  0.6533 -0.0052
 6831SOL    HW127209   2.307   4.807   3.497  0.6407  1.0114 -0.5016
 6831SOL    HW227210   2.192   4.914   3.541  0.5360  1.0118 -0.7721
 6832SOL     OW27211   7.383   8.199   3.497 -0.0926  0.1157 -0.0139
 6832SOL    HW127212   7.295   8.195   3.546 -0.5655 -2.5034 -0.9827
 6832SOL    HW227213   7.422   8.290   3.507 -3.8409  1.9476 -1.1828
 6833SOL     OW27214   8.490   8.057   4.125 -0.1287  0.2087 -0.5389
 6833SOL    HW127215   8.467   8.067   4.222  0.8698 -1.6260 -0.0864
 6833SOL    HW227216   8.423   7.996   4.082  0.4326 -0.3849 -0.5847
 6835SOL     OW27217   2.217   1.805   0.059  0.5204  0.1821  0.2517
 6835SOL    HW127218   2.220   1.797  -0.041  1.8680  0.1911  0.2773
 6835SOL    HW227219   2.149   1.742   0.095  0.8557 -0.6822 -0.5964
 6836SOL     OW27220   0.340   0.212   2.658  0.1438 -0.4436 -0.8967
 6836SOL    HW127221   0.347   0.264   2.743  0.3066 -1.2107 -0.4276
 6836SOL    HW227222   0.327   0.115   2.680 -1.0788 -0.4803 -1.7581
 6837SOL     OW27223   3.464   2.638   2.760 -0.0701  0.3362  0.3547
 6837SOL    HW127224   3.510   2.559   2.721 -0.2970  0.9356 -1.1382
 6837SOL    HW227225   3.386   2.607   2.815 -1.0912 -0.4036 -1.4814
 6838SOL     OW27226   8.376   1.199   0.413 -0.3455  0.4849 -0.0795
 6838SOL    HW127227   8.278   1.203   0.396 -0.3254 -0.9486 -0.5608
 6838SOL    HW227228   8.410   1.107   0.393  1.2755  1.2488 -0.9161
 6840SOL     OW27229   2.998   0.616   1.071  0.4354 -0.1074 -0.1658
 6840SOL    HW127230   2.998   0.633   0.972 -0.0959 -0.3991 -0.2154
 6840SOL    HW227231   3.086   0.644   1.109  0.8209 -0.4419 -0.8005
 6841SOL     OW27232   1.748   0.173   1.004 -0.3658 -0.5279 -0.4803
 6841SOL    HW127233   1.797   0.212   0.926 -0.5285  0.6679 -0.0100
 6841SOL    HW227234   1.713   0.248   1.061 -1.5597 -1.3859 -0.0867
 6842SOL     OW27235   1.619   0.222   3.335 -0.3977 -0.2461 -0.0084
 6842SOL    HW127236   1.662   0.204   3.424 -0.1669 -1.6125 -0.3981
 6842SOL    HW227237   1.677   0.186   3.262 -2.2181 -2.1818 -0.5497
 6843SOL     OW27238   6.310   9.129   4.233  0.2931  0.2793 -0.0185
 6843SOL    HW127239   6.325   9.139   4.332  1.5536  0.5357 -0.2272
 6843SOL    HW227240   6.385   9.173   4.183  0.6406 -1.4302 -1.0726
 6846SOL     OW27241   1.140   0.595   4.237  0.9933 -0.5872 -0.1697
 6846SOL    HW127242   1.120   0.682   4.193  1.8837 -0.5263 -0.4752
 6846SOL    HW227243   1.080   0.524   4.200 -1.2061  0.3021  1.6119
 6848SOL     OW27244   9.234   8.200   0.719  0.3758 -0.1184  0.2542
 6848SOL    HW127245   9.198   8.155   0.801  0.2987 -0.4726  0.0234
 6848SOL    HW227246   9.161   8.209   0.651  0.2782  0.7469  0.4635
 6849SOL     OW27247   3.490   2.045   2.294 -0.2210 -0.4692  0.0971
 6849SOL    HW127248   3.454   2.099   2.217 -0.3093 -0.0853  0.4060
 6849SOL    HW227249   3.489   2.101   2.377 -2.2440 -1.6308  0.8657
 6850SOL     OW27250   9.096   6.692   3.252  0.4788  0.4902  0.0385
 6850SOL    HW127251   9.072   6.788   3.241 -1.1781  0.1148  0.2606
 6850SOL    HW227252   9.145   6.679   3.339 -2.6709  0.5409  1.8709
 6851SOL     OW27253   9.001   4.174   0.595 -0.3713 -0.1976 -0.0625
 6851SOL    HW127254   9.026   4.271   0.594  0.5747 -0.4237  0.8353
 6851SOL    HW227255   8.995   4.142   0.689 -0.4468 -1.0703 -0.3630
 6853SOL     OW27256   4.027   5.360   1.891 -0.1232  0.3706  0.3685
 6853SOL    HW127257   4.097   5.291   1.907 -1.3853 -1.3846 -1.4184
 6853SOL    HW227258   3.953   5.350   1.957 -0.8222 -0.7109 -0.5686
 6854SOL     OW27259   1.582   6.733   2.513  0.5804 -0.3151 -0.2909
 6854SOL    HW127260   1.506   6.667   2.510  0.9564 -0.7017 -1.5796
 6854SOL    HW227261   1.570   6.801   2.441  1.2798 -0.1739 -0.2771
 6855SOL     OW27262   3.412   8.389   1.689  0.4320  0.8580 -0.0737
 6855SOL    HW127263   3.395   8.463   1.624 -2.5628  0.9962  0.7860
 6855SOL    HW227264   3.325   8.358   1.729  1.7402 -2.2083  0.6094
 6856SOL     OW27265   2.799   3.152   4.066  0.5878 -0.2343  0.3175
 6856SOL    HW127266   2.771   3.219   3.998 -0.6122 -0.9410  0.0985
 6856SOL    HW227267   2.733   3.077   4.068  0.6607 -0.2655  2.2046
 6857SOL     OW27268   8.194   1.217   2.995 -0.3511 -0.1466 -0.8811
 6857SOL    HW127269   8.271   1.229   2.931 -0.6785  0.6489 -1.1339
 6857SOL    HW227270   8.210   1.272   3.077  0.4498 -1.7826  0.0898
 6858SOL     OW27271   5.772   7.617   2.923 -0.3892  0.1821 -0.4996
 6858SOL    HW127272   5.761   7.584   2.829  2.1313 -1.8800 -0.1185
 6858SOL    HW227273   5.861   7.589   2.958 -1.2263  1.0664  2.4889
 6859SOL     OW27274   8.069   9.529   2.344  0.2105 -0.5222 -0.2737
 6859SOL    HW127275   8.100   9.578   2.425  1.4477  0.1746 -1.1416
 6859SOL    HW227276   8.023   9.593   2.282  1.0258 -0.6165 -1.0010
 6860SOL     OW27277   6.976   4.025   0.059 -0.0044  0.0599  0.0330
 6860SOL    HW127278   6.889   4.075   0.053 -0.7611 -1.2954 -0.5301
 6860SOL    HW227279   6.964   3.945   0.118  0.6955 -0.4481 -0.5048
 6861SOL     OW27280   6.270   7.648   3.371  0.2089  0.1862  0.7377
 6861SOL    HW127281   6.343   7.626   3.435 -0.8748  0.3483  2.0524
 6861SOL    HW227282   6.239   7.742   3.385 -1.5339 -0.4699  1.5153
 6862SOL     OW27283   6.625   8.563   2.097 -0.2363  0.5155 -0.4717
 6862SOL    HW127284   6.622   8.646   2.153  0.1155  0.9888 -1.1553
 6862SOL    HW227285   6.669   8.490   2.149  0.6878  1.1415 -0.3737
 6863SOL     OW27286   8.241   4.812   2.594  0.9890 -0.3313  0.4420
 6863SOL    HW127287   8.164   4.875   2.600  2.1312  1.0470  0.8706
 6863SOL    HW227288   8.267   4.799   2.498  2.4256  1.9502  0.4871
 6864SOL     OW27289   8.657   8.685   3.377 -0.3273  0.3719  0.0156
 6864SOL    HW127290   8.606   8.677   3.463  1.4507 -2.3523  0.8873
 6864SOL    HW227291   8.672   8.594   3.338  0.5483  1.4213 -2.1843
 6865SOL     OW27292   2.426   6.259   2.366 -0.2744 -0.1369  0.2603
 6865SOL    HW127293   2.517   6.300   2.372 -0.7723  0.8998  0.8456
 6865SOL    HW227294   2.416   6.213   2.278  0.6313  0.1956 -0.0240
 6866SOL     OW27295   7.183   7.252   3.038  0.1144  0.4074 -0.0429
 6866SOL    HW127296   7.141   7.210   2.957 -2.8446  0.9334  1.1389
 6866SOL    HW227297   7.120   7.243   3.115  3.0556 -0.4364  2.3179
 6867SOL     OW27298   6.019   0.374   2.162  0.7378 -0.4985 -0.4863
 6867SOL    HW127299   6.062   0.355   2.250 -0.3215  0.1073  0.1799
 6867SOL    HW227300   5.981   0.467   2.163  0.8433 -0.4370 -1.6318
 6868SOL     OW27301   3.819   1.158   2.633 -0.3136 -0.1385  0.2477
 6868SOL    HW127302   3.880   1.093   2.677 -0.6833 -0.8460 -0.2685
 6868SOL    HW227303   3.773   1.113   2.556 -0.3497  0.8162 -0.2917
 6869SOL     OW27304   4.629   2.359   3.612  0.1912  0.1302  0.2827
 6869SOL    HW127305   4.629   2.379   3.710  0.8618  2.4864 -0.1841
 6869SOL    HW227306   4.609   2.442   3.560 -0.3006 -1.1193 -1.5959
 6870SOL     OW27307   8.163   2.295   1.861 -0.5778 -0.4487 -0.1220
 6870SOL    HW127308   8.172   2.292   1.961  0.7457 -1.4548 -0.2557
 6870SOL    HW227309   8.157   2.390   1.831  0.7681 -0.0694  0.7837
 6871SOL     OW27310   0.777   0.141   3.258  0.2029 -0.2184 -0.4388
 6871SOL    HW127311   0.790   0.236   3.287 -0.4141 -0.9944  2.6387
 6871SOL    HW227312   0.702   0.101   3.311 -0.0404 -2.2190 -2.2346
 6872SOL     OW27313   0.645   4.258   0.826 -0.4699 -0.1791  0.0370
 6872SOL    HW127314   0.668   4.349   0.793 -1.1422  0.5265  1.4793
 6872SOL    HW227315   0.617   4.263   0.921  0.0837 -1.9884  0.3220
 6873SOL     OW27316   9.901   3.520   1.050  0.0496 -0.1146 -0.2192
 6873SOL    HW127317   9.830   3.583   1.082  0.1988 -0.6344  1.1730
 6873SOL    HW227318   9.968   3.570   0.995  0.1141  0.9433  0.7831
 6874SOL     OW27319   3.766   2.384   2.084  0.1732  0.3775  0.5896
 6874SOL    HW127320   3.839   2.444   2.050  0.3337 -0.0180  0.2327
 6874SOL    HW227321   3.742   2.318   2.013 -1.2775  1.1930  0.3128
 6875SOL     OW27322   8.939   8.774   0.438  0.1940 -0.2044 -0.1540
 6875SOL    HW127323   8.850   8.768   0.394 -0.3939  1.8780  0.6598
 6875SOL    HW227324   8.958   8.870   0.461  2.5693 -0.6406 -0.1655
 6877SOL     OW27325   9.091   3.945   3.463  0.0432 -0.1728 -0.4400
 6877SOL    HW127326   9.062   3.856   3.429 -0.5400  0.7490 -2.4586
 6877SOL    HW227327   9.180   3.969   3.424 -0.0159  0.3238 -0.2783
 6878SOL     OW27328   3.374   0.165   2.396  0.0862 -0.0291  0.0584
 6878SOL    HW127329   3.348   0.252   2.439  0.0408  0.0060 -0.0385
 6878SOL    HW227330   3.330   0.089   2.444 -0.1380  0.0252 -0.0614
 6879SOL     OW27331   2.913   8.873   1.918 -0.4765  0.0066 -0.3762
 6879SOL    HW127332   2.976   8.808   1.961 -0.4573 -1.9447 -3.1915
 6879SOL    HW227333   2.966   8.941   1.867 -0.5422  1.2684  1.2257
 6880SOL     OW27334   2.719   0.649   4.383  0.3709 -0.4589 -0.2535
 6880SOL    HW127335   2.637   0.596   4.366  0.5007 -0.8011  0.1625
 6880SOL    HW227336   2.694   0.743   4.407  0.1178 -0.4781 -0.4474
 6881SOL     OW27337   0.932   3.431   2.519  0.2518  0.5068  0.2227
 6881SOL    HW127338   1.009   3.463   2.463  2.1301 -1.1811  1.7729
 6881SOL    HW227339   0.900   3.343   2.485 -1.4162  1.4543 -0.7574
 6882SOL     OW27340   2.649   8.219   0.616  0.4613  0.0560  0.4131
 6882SOL    HW127341   2.700   8.193   0.534 -0.0468 -0.5071  0.2708
 6882SOL    HW227342   2.700   8.188   0.697  0.6279  0.0007  0.2885
 6884SOL     OW27343   8.123   8.823   0.741 -0.1902  0.6141  0.1974
 6884SOL    HW127344   8.157   8.775   0.660 -0.2596 -2.3683  1.8668
 6884SOL    HW227345   8.197   8.875   0.783  0.2029  0.9822 -0.9485
 6885SOL     OW27346   9.214   5.754   4.383  0.6818 -0.4215  0.3971
 6885SOL    HW127347   9.273   5.767   4.463  0.8708  1.3951 -0.0153
 6885SOL    HW227348   9.200   5.841   4.337 -1.1551 -1.0827 -0.3578
 6886SOL     OW27349   8.694   3.071   1.125 -0.1788  0.0747  0.2728
 6886SOL    HW127350   8.765   3.140   1.138 -0.0154  0.0054 -0.2422
 6886SOL    HW227351   8.731   2.981   1.151 -0.8143  0.3638  2.2378
 6887SOL     OW27352   0.577   4.269   2.590 -0.6367  0.1935  0.2065
 6887SOL    HW127353   0.574   4.173   2.617  2.3726 -0.5392 -1.8456
 6887SOL    HW227354   0.516   4.284   2.512 -1.5175  0.0858  0.8687
 6888SOL     OW27355   0.238   4.375   1.642  0.7784 -0.4992  0.6349
 6888SOL    HW127356   0.220   4.288   1.595 -0.6687  0.9430 -1.5388
 6888SOL    HW227357   0.334   4.378   1.670  1.2711 -2.0760 -0.7790
 6889SOL     OW27358   4.147   3.469   3.617 -0.2870  0.0454  0.0675
 6889SOL    HW127359   4.114   3.383   3.580 -1.4979 -0.3579  2.0103
 6889SOL    HW227360   4.078   3.508   3.678  1.5728  0.7246  1.8092
 6890SOL     OW27361   8.909   8.241   3.580 -0.3196  0.1058 -0.0017
 6890SOL    HW127362   8.810   8.241   3.598 -0.4284  0.5508 -0.5842
 6890SOL    HW227363   8.934   8.158   3.532 -0.0859 -0.9428  1.8721
 6891SOL     OW27364   1.984   2.426   1.271 -0.0760  0.0588 -0.4270
 6891SOL    HW127365   2.015   2.368   1.196 -1.3469  0.1930 -1.0699
 6891SOL    HW227366   2.063   2.455   1.326  0.5443 -2.3590 -0.0181
 6892SOL     OW27367   8.274   7.633   3.589  0.5484 -0.2276  0.1776
 6892SOL    HW127368   8.327   7.563   3.542 -0.4218  0.4877 -2.0514
 6892SOL    HW227369   8.335   7.705   3.621  1.2250 -0.7220  0.0149
 6893SOL     OW27370   6.478   9.186   1.154 -0.3533  0.1100 -0.0944
 6893SOL    HW127371   6.473   9.088   1.174 -1.5650  0.2355  0.2516
 6893SOL    HW227372   6.455   9.202   1.058 -0.4502  0.0806 -0.0765
 6894SOL     OW27373   5.410   0.288   4.433 -0.4280 -0.3527  0.1434
 6894SOL    HW127374   5.310   0.292   4.434 -0.4474 -0.6932 -0.4327
 6894SOL    HW227375   5.439   0.193   4.448 -0.1589  0.0095  2.0514
 6896SOL     OW27376   9.655   5.044   3.023  0.1315 -0.4624  0.8311
 6896SOL    HW127377   9.714   5.078   3.096  0.6943  1.0990 -0.3267
 6896SOL    HW227378   9.573   5.004   3.063  1.2070 -1.1794  2.3861
 6899SOL     OW27379   5.074   2.927   0.114 -0.2392 -0.0581  0.2162
 6899SOL    HW127380   5.006   2.952   0.046  0.7429  3.7664  0.5194
 6899SOL    HW227381   5.166   2.946   0.078  0.5679 -2.7118  0.7736
 6901SOL     OW27382   9.423   9.453   0.461 -0.3508  0.0344  0.4798
 6901SOL    HW127383   9.476   9.374   0.430 -0.3239  0.5187 -0.7362
 6901SOL    HW227384   9.480   9.511   0.520  0.0332 -0.1830  0.3185
 6902SOL     OW27385   8.603   0.921   3.714  0.1412 -0.3134 -0.4122
 6902SOL    HW127386   8.598   0.939   3.616 -1.1914 -1.7135 -0.6170
 6902SOL    HW227387   8.513   0.893   3.748  0.7455 -0.5131  1.0754
 6904SOL     OW27388   0.632   1.022   0.238 -0.2773  0.0362 -0.3605
 6904SOL    HW127389   0.583   1.015   0.152  1.3175  0.3195 -1.3162
 6904SOL    HW227390   0.620   1.113   0.277 -2.9990 -0.8543  0.9710
 6905SOL     OW27391   1.464   1.922   3.271 -0.1744  0.2328 -0.0482
 6905SOL    HW127392   1.479   2.010   3.225 -0.4648  1.3282  1.8965
 6905SOL    HW227393   1.389   1.932   3.336  0.1411 -1.3382  0.5564
 6906SOL     OW27394   9.587   7.922   3.590 -0.0275  0.7400  0.1354
 6906SOL    HW127395   9.683   7.908   3.614  0.6290  1.0106 -2.1822
 6906SOL    HW227396   9.570   8.020   3.582 -0.4886  0.6857  0.4471
 6907SOL     OW27397   3.725   8.572   4.191 -0.3791  0.1979 -0.0681
 6907SOL    HW127398   3.675   8.529   4.116  0.4393  1.5911 -1.4088
 6907SOL    HW227399   3.685   8.662   4.210 -1.6619 -0.8113  2.2999
 6908SOL     OW27400   7.022   9.869   1.855 -0.0750 -0.3517  0.3081
 6908SOL    HW127401   6.936   9.856   1.807  0.1859 -1.4469  0.1307
 6908SOL    HW227402   7.007   9.926   1.936 -0.5701  1.2126 -0.8698
 6909SOL     OW27403   2.712   2.463   0.659  0.2260 -0.3912 -0.1169
 6909SOL    HW127404   2.656   2.524   0.717  1.1827 -0.6209  1.0727
 6909SOL    HW227405   2.652   2.398   0.612 -0.5274 -0.6492  1.1637
 6910SOL     OW27406   9.011   0.995   0.880 -0.1888 -0.1502 -0.1562
 6910SOL    HW127407   9.054   0.915   0.922  0.0354  0.3794  0.6362
 6910SOL    HW227408   8.935   1.025   0.936 -0.7959 -0.3011 -0.8874
 6912SOL     OW27409   2.553   6.326   1.865  0.0645 -0.3999  0.2326
 6912SOL    HW127410   2.575   6.374   1.950 -2.5189  0.9865  0.1746
 6912SOL    HW227411   2.483   6.377   1.816 -1.9221 -3.6297 -0.4293
 6914SOL     OW27412   4.027   9.291   1.444 -0.0173 -0.0222 -0.1700
 6914SOL    HW127413   3.975   9.244   1.515  0.2357  1.1980  0.8529
 6914SOL    HW227414   4.119   9.253   1.438 -0.1271 -0.3100 -0.0305
 6915SOL     OW27415   3.222   6.508   1.885  0.2690 -0.6837 -0.1864
 6915SOL    HW127416   3.280   6.572   1.834 -1.7612  1.5286  0.2087
 6915SOL    HW227417   3.192   6.434   1.824 -0.1009  0.5712 -1.5512
 6916SOL     OW27418   4.724   5.874   1.432 -0.2720  0.1386  1.0041
 6916SOL    HW127419   4.769   5.935   1.497 -0.1172 -0.5365  1.5454
 6916SOL    HW227420   4.775   5.874   1.346  0.0969  0.2771  1.2211
 6917SOL     OW27421   1.468   9.243   3.050 -0.0917 -0.5921 -0.0312
 6917SOL    HW127422   1.404   9.204   3.116 -0.2355  0.5877  0.5430
 6917SOL    HW227423   1.509   9.326   3.088  0.6019 -0.4690 -1.0183
 6918SOL     OW27424   8.199   9.953   1.057  0.4248 -0.8854  0.2327
 6918SOL    HW127425   8.125   9.949   0.991 -0.3105 -1.1487  1.0642
 6918SOL    HW227426   8.179   9.892   1.134  1.1306 -0.3627  0.8428
 6920SOL     OW27427   1.653   1.120   2.171 -0.1661  0.0376  0.3524
 6920SOL    HW127428   1.566   1.165   2.153 -0.1142 -0.6023 -1.6889
 6920SOL    HW227429   1.715   1.184   2.217 -1.7293  0.4589  1.9139
 6921SOL     OW27430   0.659   1.202   4.380 -0.0344  0.0942 -0.3964
 6921SOL    HW127431   0.697   1.236   4.467 -1.2931 -0.4563  0.3770
 6921SOL    HW227432   0.566   1.170   4.395  1.0090 -3.5368 -1.1256
 6922SOL     OW27433   8.900   2.726   1.440 -0.6351 -0.1015 -0.1531
 6922SOL    HW127434   8.955   2.775   1.508 -1.7807  2.9415 -1.3221
 6922SOL    HW227435   8.953   2.715   1.356 -0.7686  0.1741 -0.2743
 6923SOL     OW27436   3.539   2.896   0.371 -0.0147  0.5142  0.5472
 6923SOL    HW127437   3.486   2.920   0.452 -0.9001 -0.8193  0.3801
 6923SOL    HW227438   3.560   2.799   0.373  0.3349  0.5585 -0.6054
 6925SOL     OW27439   5.438   8.743   3.703 -0.4470 -0.7465  0.1561
 6925SOL    HW127440   5.416   8.646   3.710  0.7086 -1.1100 -0.9933
 6925SOL    HW227441   5.395   8.781   3.622 -0.3373 -0.4625  0.2316
 6926SOL     OW27442   2.583   7.017   2.766 -0.5821  0.3886 -0.4028
 6926SOL    HW127443   2.618   6.949   2.831 -0.1702  0.4841 -0.5204
 6926SOL    HW227444   2.525   6.971   2.698 -0.7716  0.2429 -0.1455
 6928SOL     OW27445   2.321   2.041   3.513 -0.1868  0.2522 -0.4399
 6928SOL    HW127446   2.381   2.115   3.484  0.6196  0.0168  0.6033
 6928SOL    HW227447   2.375   1.958   3.528 -0.8329 -0.0835  0.0523
 6929SOL     OW27448   2.013   8.882   2.966  0.4664 -0.2195 -0.5313
 6929SOL    HW127449   1.933   8.913   2.914  0.9780 -0.0807 -1.2489
 6929SOL    HW227450   2.071   8.961   2.988  0.6432 -0.3825 -0.4155
 6930SOL     OW27451   3.062   1.815   0.947 -0.0589  0.1068 -0.2384
 6930SOL    HW127452   3.075   1.844   1.042 -0.4295  0.8393 -0.4101
 6930SOL    HW227453   3.135   1.752   0.921 -0.1161 -0.3275  0.6232
 6931SOL     OW27454   5.976   3.814   0.195 -0.2846 -0.2309 -0.2495
 6931SOL    HW127455   5.981   3.716   0.177 -1.6136 -0.1609 -1.1249
 6931SOL    HW227456   6.046   3.862   0.142 -0.8656 -0.5381 -1.3125
 6933SOL     OW27457   1.756   2.626   1.286 -0.7076 -0.2186 -0.0319
 6933SOL    HW127458   1.856   2.615   1.289 -0.5387  0.9834 -0.5628
 6933SOL    HW227459   1.734   2.723   1.294 -2.0420 -0.7710  3.9625
 6934SOL     OW27460   9.187   5.526   2.727 -0.0031 -0.5893 -0.0617
 6934SOL    HW127461   9.280   5.522   2.764 -0.1093 -0.4764  0.2142
 6934SOL    HW227462   9.146   5.435   2.733  0.5043 -0.9090 -1.2447
 6935SOL     OW27463   9.326   8.057   0.355 -0.3485  0.3578  0.3447
 6935SOL    HW127464   9.289   8.128   0.295  1.8319  1.0126 -0.2840
 6935SOL    HW227465   9.276   7.972   0.342  1.3860 -0.1152 -4.0159
 6936SOL     OW27466   7.409   0.418   1.734 -0.0495  0.0086  0.3418
 6936SOL    HW127467   7.339   0.372   1.680 -0.1973 -0.7842  1.1963
 6936SOL    HW227468   7.368   0.495   1.783  0.3671  1.6264 -1.7506
 6937SOL     OW27469   9.193   3.613   2.001 -0.3381  0.4895 -0.1709
 6937SOL    HW127470   9.133   3.534   1.996 -1.1616  1.1021 -0.1898
 6937SOL    HW227471   9.204   3.654   1.911  0.5961  0.0331 -0.2737
 6938SOL     OW27472   9.815   2.199   2.530 -0.0875 -0.0644 -0.1490
 6938SOL    HW127473   9.835   2.252   2.447  0.0114  1.5767  0.9095
 6938SOL    HW227474   9.892   2.139   2.550 -0.3183 -0.8360 -1.5316
 6939SOL     OW27475   9.561   7.654   3.634 -0.2418 -0.4325  0.3748
 6939SOL    HW127476   9.577   7.752   3.622  0.8324 -0.5708  0.6697
 6939SOL    HW227477   9.648   7.606   3.642 -0.7549 -1.4358  0.0919
 6940SOL     OW27478   1.230   2.127   0.044  1.1669 -0.4373  0.0624
 6940SOL    HW127479   1.152   2.128   0.106  1.1039 -1.3021  0.0141
 6940SOL    HW227480   1.236   2.037   0.001  2.5495 -0.5802  0.5234
 6942SOL     OW27481   0.575   6.780   1.037 -0.5998 -0.0743  0.0244
 6942SOL    HW127482   0.659   6.738   1.004  0.0704 -1.2071  2.9417
 6942SOL    HW227483   0.564   6.870   0.996  1.6130 -0.2442 -1.0220
 6943SOL     OW27484   4.556   7.764   3.229  0.6156  0.5253  0.3983
 6943SOL    HW127485   4.484   7.758   3.297  1.1191 -1.0659  0.8090
 6943SOL    HW227486   4.644   7.774   3.274  0.8397  0.5794 -0.0485
 6944SOL     OW27487   2.214   2.440   0.591 -0.5546 -0.5506 -0.2508
 6944SOL    HW127488   2.212   2.347   0.555  0.2041  0.0309 -1.8586
 6944SOL    HW227489   2.138   2.492   0.552 -0.1689 -0.1286 -0.4547
 6945SOL     OW27490   9.019   0.138   1.566 -0.3560 -0.8037 -0.4138
 6945SOL    HW127491   9.024   0.064   1.633 -0.0216 -1.5786 -1.2769
 6945SOL    HW227492   9.004   0.100   1.475  0.7354  0.1147 -1.0038
 6946SOL     OW27493   2.991   7.422   3.439 -0.2422 -0.1250  0.4193
 6946SOL    HW127494   2.919   7.482   3.476 -1.0740 -0.2563 -0.9647
 6946SOL    HW227495   2.967   7.394   3.347  2.2456  0.8892 -0.5720
 6947SOL     OW27496   3.919   9.174   3.750  0.0257  0.1563  0.0279
 6947SOL    HW127497   3.879   9.112   3.684 -1.0031  1.4464 -0.5766
 6947SOL    HW227498   3.874   9.162   3.839  0.3461 -0.4719  0.1127
 6948SOL     OW27499   3.098   0.938   4.390 -0.1620 -0.6530 -0.1917
 6948SOL    HW127500   3.042   0.872   4.339  1.5649  0.0802 -3.1201
 6948SOL    HW227501   3.068   1.031   4.369 -0.3676 -0.3715  1.2820
 6950SOL     OW27502   8.841   8.860   1.923  0.0215 -0.0299 -0.0372
 6950SOL    HW127503   8.898   8.910   1.989 -0.3995  0.2737  0.1023
 6950SOL    HW227504   8.767   8.814   1.972  0.1946 -0.4847 -0.2087
 6953SOL     OW27505   3.702   0.207   2.930 -0.0007 -0.2583 -0.0915
 6953SOL    HW127506   3.638   0.252   2.869  1.2087  2.1333  0.3583
 6953SOL    HW227507   3.708   0.257   3.016  0.9322 -1.6004  0.6558
 6956SOL     OW27508   9.447   9.797   3.598 -0.8869 -0.4601 -0.4067
 6956SOL    HW127509   9.442   9.711   3.547  0.1129 -0.7053 -0.0999
 6956SOL    HW227510   9.497   9.865   3.544 -0.1622 -0.6026  0.0820
 6957SOL     OW27511   1.007   8.219   1.786 -0.1515 -0.0825  0.3475
 6957SOL    HW127512   1.028   8.311   1.819 -0.1256  0.6110 -1.5377
 6957SOL    HW227513   1.013   8.154   1.862  2.9262  0.9808  1.1020
 6958SOL     OW27514   1.134   7.191   3.326 -0.2759  0.6798 -0.1158
 6958SOL    HW127515   1.139   7.101   3.284  0.2389 -0.5020  2.3438
 6958SOL    HW227516   1.218   7.208   3.379 -0.5557  2.4035 -0.1754
 6960SOL     OW27517   2.598   9.286   0.144  0.3921 -0.1076  0.1112
 6960SOL    HW127518   2.536   9.209   0.161 -1.2730  0.8985 -1.2543
 6960SOL    HW227519   2.693   9.254   0.152 -0.2684 -2.0244  0.7293
 6961SOL     OW27520   0.671   1.098   3.449  0.5074  0.3590  0.0539
 6961SOL    HW127521   0.625   1.092   3.537  1.3679 -0.1836  0.4780
 6961SOL    HW227522   0.685   1.194   3.425  0.5580  0.5078  0.6718
 6962SOL     OW27523   1.570   1.288   0.375  0.1815  0.4968 -0.2203
 6962SOL    HW127524   1.580   1.306   0.277  0.5881  1.1327 -0.0647
 6962SOL    HW227525   1.504   1.353   0.414 -1.3432 -0.8958 -0.4050
 6963SOL     OW27526   2.637   4.205   3.795 -0.3329 -0.1659  0.2554
 6963SOL    HW127527   2.594   4.277   3.741  2.1137  1.7390  0.7502
 6963SOL    HW227528   2.684   4.246   3.873 -1.3158 -2.6048  2.1950
 6964SOL     OW27529   8.183   0.771   0.176  0.3583 -0.2696  0.7491
 6964SOL    HW127530   8.179   0.860   0.132 -3.4416 -1.0392 -0.6406
 6964SOL    HW227531   8.114   0.766   0.249 -0.1649 -2.3503  0.1670
 6966SOL     OW27532   3.368   6.773   4.212  0.2650 -0.1782 -0.3323
 6966SOL    HW127533   3.273   6.746   4.226 -0.3975  0.7614 -2.6970
 6966SOL    HW227534   3.371   6.860   4.163  2.3286 -1.2778 -2.2902
 6967SOL     OW27535   2.941   5.460   0.641 -0.2658 -0.3077  0.2948
 6967SOL    HW127536   2.904   5.367   0.630 -0.8516 -0.0254 -0.1555
 6967SOL    HW227537   2.866   5.526   0.635 -0.2558  0.0423  3.3316
 6968SOL     OW27538   2.780   3.736   2.297 -0.2969  0.0489  0.4686
 6968SOL    HW127539   2.703   3.762   2.239  0.4837 -0.6602 -0.9102
 6968SOL    HW227540   2.858   3.796   2.278  0.1820 -0.6257  0.2829
 6969SOL     OW27541   0.326   4.780   3.980  0.1684 -0.4401 -0.5468
 6969SOL    HW127542   0.392   4.708   4.004  1.4413 -0.2160 -3.1701
 6969SOL    HW227543   0.341   4.808   3.885 -1.4499  2.0952 -0.0899
 6970SOL     OW27544   8.363   3.825   0.546 -0.0831 -0.4382  0.1753
 6970SOL    HW127545   8.386   3.915   0.581 -1.0747 -0.4422  0.8679
 6970SOL    HW227546   8.294   3.833   0.474 -0.5718 -0.6690  0.6096
 6971SOL     OW27547   4.258   8.697   0.113  0.7103  0.4400  0.0787
 6971SOL    HW127548   4.316   8.671   0.036  1.0537  0.5052  0.3109
 6971SOL    HW227549   4.192   8.766   0.083  0.7895  0.4063 -0.1769
 6972SOL     OW27550   5.393   8.536   2.095 -0.3454 -0.6427 -0.0608
 6972SOL    HW127551   5.375   8.621   2.146 -1.6414 -0.0898 -1.3749
 6972SOL    HW227552   5.389   8.458   2.157  0.1645  0.2014  1.0436
 6973SOL     OW27553   1.506   1.960   3.588 -0.0489 -0.1631  0.4302
 6973SOL    HW127554   1.587   1.982   3.533 -0.3650  0.1988  0.1072
 6973SOL    HW227555   1.488   1.862   3.582  1.6396 -0.6146  2.2577
 6974SOL     OW27556   8.904   9.533   4.082 -0.0929 -0.2095 -0.3483
 6974SOL    HW127557   8.951   9.556   4.168  0.2019 -0.0999 -0.5393
 6974SOL    HW227558   8.826   9.474   4.102 -0.2001  0.0594  0.0285
 6975SOL     OW27559   1.172   7.244   2.405  0.4166  0.3458  0.6413
 6975SOL    HW127560   1.143   7.148   2.410  1.5542  0.0311  1.3386
 6975SOL    HW227561   1.172   7.274   2.310  0.1411 -0.3776  0.4075
 6976SOL     OW27562   4.578   8.187   2.391 -0.6416  0.9348 -0.0522
 6976SOL    HW127563   4.664   8.204   2.343  0.1589  0.7575  1.3216
 6976SOL    HW227564   4.508   8.251   2.357 -0.3415  0.2113 -2.0975
 6980SOL     OW27565   3.982   8.993   0.338  0.8502  0.1030  0.1774
 6980SOL    HW127566   3.918   8.916   0.330  1.8902 -0.8078  0.5466
 6980SOL    HW227567   3.950   9.056   0.408 -0.2378  0.2315 -0.4274
 6982SOL     OW27568   4.859   2.930   1.069 -0.4521  0.3847 -0.4226
 6982SOL    HW127569   4.884   2.868   0.995  1.1124 -1.7599  1.8342
 6982SOL    HW227570   4.940   2.977   1.103 -1.0127  0.6801  0.5287
 6983SOL     OW27571   4.847   8.228   3.957 -0.0607  0.2320 -0.1142
 6983SOL    HW127572   4.919   8.206   4.022  1.3846  1.1968 -1.3599
 6983SOL    HW227573   4.790   8.302   3.993 -0.3005 -0.3700  0.7612
 6984SOL     OW27574   9.381   9.284   3.804  0.0260  0.1239 -0.0394
 6984SOL    HW127575   9.434   9.364   3.833  0.4589 -0.2591  0.2403
 6984SOL    HW227576   9.349   9.235   3.885 -1.8192  1.0297 -0.1795
 6985SOL     OW27577   8.419   4.507   2.290 -0.7128  0.0236  0.1330
 6985SOL    HW127578   8.434   4.573   2.216  0.7677 -2.1561 -1.5699
 6985SOL    HW227579   8.450   4.547   2.377  1.2914  1.1253 -1.0541
 6986SOL     OW27580   1.864   0.331   3.752 -0.2611 -0.4259  0.3646
 6986SOL    HW127581   1.961   0.346   3.767 -0.1470 -0.6764 -0.1171
 6986SOL    HW227582   1.812   0.361   3.833  0.1555  0.3971  0.3278
 6988SOL     OW27583   4.677   9.785   0.762  0.0984  0.2089  0.0803
 6988SOL    HW127584   4.642   9.731   0.838 -0.4912 -0.5584 -0.7222
 6988SOL    HW227585   4.777   9.785   0.764  0.1504 -2.2786 -0.8392
 6989SOL     OW27586   0.283   7.641   1.277  0.0181 -0.3120 -0.0081
 6989SOL    HW127587   0.322   7.719   1.227  0.0927 -0.4875 -0.2249
 6989SOL    HW227588   0.219   7.593   1.217 -1.0769  0.3974  0.5735
 6990SOL     OW27589   9.172   3.592   1.475 -0.6216  0.1841  0.0682
 6990SOL    HW127590   9.204   3.516   1.531 -2.3306 -1.9228 -1.6928
 6990SOL    HW227591   9.246   3.624   1.416 -0.4889 -1.6653 -0.8070
 6991SOL     OW27592   6.761   8.773   2.245  0.2991  0.0914 -0.0153
 6991SOL    HW127593   6.831   8.836   2.279 -1.3452  2.3400 -0.6452
 6991SOL    HW227594   6.732   8.713   2.319  0.7955  1.1225  1.0458
 6993SOL     OW27595   9.662   3.851   0.542  0.2895  0.0372  0.1512
 6993SOL    HW127596   9.691   3.774   0.598 -1.9746 -0.5054  0.5848
 6993SOL    HW227597   9.691   3.937   0.587  0.4457 -0.4588  1.0169
 6994SOL     OW27598   0.991   1.048   2.161  0.4705 -0.6713 -0.1349
 6994SOL    HW127599   0.937   0.968   2.134 -0.3028 -0.0264 -0.5306
 6994SOL    HW227600   0.930   1.119   2.197  1.1086 -0.1209 -0.1160
 6995SOL     OW27601   8.008   0.559   1.408  0.1167 -0.0622  0.7364
 6995SOL    HW127602   8.011   0.587   1.312  0.3082 -3.0537 -0.1709
 6995SOL    HW227603   7.944   0.483   1.419  0.6947 -0.2719  2.8405
 6996SOL     OW27604   4.381   4.537   0.417  0.3854  0.0425  0.2480
 6996SOL    HW127605   4.358   4.443   0.391 -0.2854  0.1410  0.4752
 6996SOL    HW227606   4.479   4.551   0.405  0.4233 -0.5507 -0.2222
 6997SOL     OW27607   6.919   1.370   2.174 -0.1505  0.1273 -0.0307
 6997SOL    HW127608   6.903   1.307   2.250 -0.1368 -0.1545 -0.2614
 6997SOL    HW227609   6.897   1.325   2.088  0.6241  0.1707 -0.2582
 6998SOL     OW27610   7.732   8.210   1.159 -0.1217  0.2826 -0.3834
 6998SOL    HW127611   7.717   8.241   1.065 -1.3224 -1.7212 -0.9021
 6998SOL    HW227612   7.790   8.128   1.158  1.0151  1.0616  0.7400
 6999SOL     OW27613   8.401   2.227   2.047 -0.4699  0.3614  0.3538
 6999SOL    HW127614   8.329   2.259   2.109  0.8777 -1.4648  2.9502
 6999SOL    HW227615   8.378   2.135   2.015 -0.2535  0.5712 -0.4109
 7000SOL     OW27616   0.444   9.120   2.305  0.0970 -0.0609 -0.0725
 7000SOL    HW127617   0.444   9.103   2.206  0.1704 -0.6037  0.0156
 7000SOL    HW227618   0.362   9.171   2.330 -0.8103 -1.4463 -0.1622
 7001SOL     OW27619   3.191   2.921   1.605 -0.0457  0.0579 -0.4290
 7001SOL    HW127620   3.284   2.956   1.618 -0.3635  1.1157 -0.9518
 7001SOL    HW227621   3.177   2.899   1.509 -0.0275 -1.0193 -0.1913
 7002SOL     OW27622   1.786   6.228   0.280 -0.2645 -0.3986 -0.1805
 7002SOL    HW127623   1.775   6.202   0.376  1.8357 -1.1421 -0.1219
 7002SOL    HW227624   1.883   6.231   0.257 -0.7494 -0.3243 -2.3095
 7003SOL     OW27625   3.956   6.934   1.528 -0.5384  0.4214 -0.3630
 7003SOL    HW127626   3.930   6.985   1.446  0.1167  0.2043 -0.7040
 7003SOL    HW227627   4.008   6.853   1.502 -1.1491 -0.1603  0.2133
 7004SOL     OW27628   5.353   0.368   0.732  0.3209 -0.0760  0.1698
 7004SOL    HW127629   5.380   0.421   0.651  1.9673  0.1227  0.8295
 7004SOL    HW227630   5.400   0.280   0.732 -1.2088 -0.9109 -0.1048
 7005SOL     OW27631   4.776   3.148   3.215 -0.3215 -0.4221  0.7978
 7005SOL    HW127632   4.852   3.104   3.168  0.7178  1.1201  1.0070
 7005SOL    HW227633   4.786   3.136   3.314 -0.5221 -0.4873  0.8114
 7006SOL     OW27634   7.480   1.123   2.474 -0.2752 -0.1248 -0.0531
 7006SOL    HW127635   7.485   1.119   2.574 -0.7966 -2.1531 -0.0861
 7006SOL    HW227636   7.571   1.143   2.437  0.6061 -2.6302  0.7073
 7007SOL     OW27637   5.343   0.682   1.258  0.2104  0.0395 -0.6012
 7007SOL    HW127638   5.366   0.742   1.181  0.3188  1.4669  0.5169
 7007SOL    HW227639   5.279   0.729   1.319 -0.7474 -1.5046 -0.3956
 7008SOL     OW27640   0.359   5.864   1.649 -0.0840 -0.5301  0.5871
 7008SOL    HW127641   0.359   5.800   1.572 -0.6520 -0.6193  0.6590
 7008SOL    HW227642   0.264   5.885   1.675  0.0196  2.4029 -1.1779
 7009SOL     OW27643   9.541   0.371   0.703  0.1584  0.4468 -1.0177
 7009SOL    HW127644   9.473   0.315   0.749  1.6023 -1.0308 -0.6374
 7009SOL    HW227645   9.516   0.381   0.606  0.5045 -1.9131 -1.3921
 7010SOL     OW27646   3.276   7.279   3.203 -0.4725 -0.0643  0.1819
 7010SOL    HW127647   3.342   7.214   3.164 -0.7657 -0.7607  0.8264
 7010SOL    HW227648   3.242   7.339   3.131 -0.8964 -1.2429 -0.6212
 7011SOL     OW27649   8.638   1.158   3.816 -0.2098 -0.1674 -0.6981
 7011SOL    HW127650   8.634   1.069   3.769  0.1791 -1.4216  1.5626
 7011SOL    HW227651   8.546   1.183   3.848 -0.2822  0.1311 -1.1497
 7012SOL     OW27652   2.077   4.452   1.416 -0.3387  0.2632 -0.3171
 7012SOL    HW127653   1.991   4.462   1.366 -0.3442 -0.2118 -0.4023
 7012SOL    HW227654   2.080   4.362   1.459 -0.0199  0.3991 -0.0538
 7015SOL     OW27655   0.048   6.698   2.873  0.2882  0.5858 -0.3564
 7015SOL    HW127656   0.101   6.779   2.900  0.8392 -0.2956  1.2820
 7015SOL    HW227657  -0.049   6.714   2.892  0.4255  0.7704  0.1897
 7016SOL     OW27658   3.925   4.822   0.960 -0.6675 -0.2071  0.1616
 7016SOL    HW127659   3.832   4.848   0.984 -0.9231  0.9641 -2.0207
 7016SOL    HW227660   3.934   4.816   0.861  1.7051  0.1517  0.3180
 7020SOL     OW27661   3.410   9.000   1.486 -0.3319 -0.2407 -0.1469
 7020SOL    HW127662   3.502   9.033   1.465 -0.0522 -0.6149  0.4724
 7020SOL    HW227663   3.374   8.948   1.408  0.2996 -0.7804 -0.0803
 7022SOL     OW27664   4.744   9.173   0.799 -0.2129  0.2532  0.0379
 7022SOL    HW127665   4.645   9.180   0.789 -0.4608 -0.9373  1.6120
 7022SOL    HW227666   4.785   9.156   0.709 -1.5973 -1.0768 -0.3600
 7024SOL     OW27667   0.127   0.037   0.903  0.2405  0.1377 -0.2139
 7024SOL    HW127668   0.030   0.062   0.904  0.2179  0.0390  0.1125
 7024SOL    HW227669   0.142  -0.033   0.833 -0.3401 -1.4696  1.2127
 7025SOL     OW27670   8.007   0.812   4.340 -0.5430  0.2793 -0.7435
 7025SOL    HW127671   8.035   0.811   4.244  0.4636  1.1840 -0.4679
 7025SOL    HW227672   8.084   0.838   4.397 -1.0987 -0.3985  0.3356
 7026SOL     OW27673   0.086   0.855   3.073  0.0457  0.3509  0.3926
 7026SOL    HW127674   0.154   0.918   3.113  0.1501  0.5217 -0.0525
 7026SOL    HW227675   0.060   0.888   2.982 -0.7694  0.3804  0.6322
 7027SOL     OW27676   6.934   8.684   2.877 -0.0844  0.1368  0.2224
 7027SOL    HW127677   6.993   8.707   2.801  0.6974 -1.3167  0.3723
 7027SOL    HW227678   6.986   8.686   2.962 -0.8284  1.2285  0.6741
 7029SOL     OW27679   2.836   3.228   4.338  0.1238 -0.0355 -0.2739
 7029SOL    HW127680   2.807   3.182   4.254  0.2466 -1.7142  0.5607
 7029SOL    HW227681   2.925   3.193   4.365  0.1484  0.6018  0.4631
 7031SOL     OW27682   3.443   6.625   0.667  0.3720  0.1966 -0.7919
 7031SOL    HW127683   3.442   6.689   0.591 -0.1693  1.1602  0.0115
 7031SOL    HW227684   3.383   6.547   0.646 -1.3926  1.4605 -0.5062
 7035SOL     OW27685   0.384   0.497   2.524 -1.0066 -0.0875 -0.6897
 7035SOL    HW127686   0.446   0.490   2.603 -0.8841  1.5248 -0.6308
 7035SOL    HW227687   0.426   0.451   2.446 -0.2326  0.0365 -0.3534
 7037SOL     OW27688   8.267   7.156   4.149 -0.4018  0.0900 -0.2723
 7037SOL    HW127689   8.271   7.061   4.117 -3.4865  0.8019 -3.1410
 7037SOL    HW227690   8.358   7.186   4.176  0.9869 -3.0877 -1.1345
 7038SOL     OW27691   6.477   9.524   3.293  0.2982 -0.1454  0.1444
 7038SOL    HW127692   6.455   9.462   3.218 -0.8963 -0.4496  0.7242
 7038SOL    HW227693   6.536   9.477   3.359  0.9144 -0.0532 -0.3414
 7039SOL     OW27694   8.149   6.480   1.663 -0.2502  0.5843  0.1388
 7039SOL    HW127695   8.068   6.517   1.709 -0.5256 -0.1096  0.2209
 7039SOL    HW227696   8.224   6.473   1.728 -1.3039 -2.5537  1.0958
 7040SOL     OW27697   1.960   3.240   2.288 -0.0182  0.3839  0.3643
 7040SOL    HW127698   1.942   3.338   2.291 -0.5041  0.3482 -0.9568
 7040SOL    HW227699   1.888   3.190   2.336 -0.8109  0.5624 -0.6196
 7041SOL     OW27700   0.351   0.989   2.219 -0.3164 -0.4172  0.4389
 7041SOL    HW127701   0.388   0.919   2.280  0.6659 -0.8900 -0.6768
 7041SOL    HW227702   0.255   0.968   2.198 -0.0401 -1.4252  0.1440
 7042SOL     OW27703   2.382   6.974   3.515  0.2979 -0.3287  0.1474
 7042SOL    HW127704   2.420   7.065   3.532  0.1432 -0.3236  0.4746
 7042SOL    HW227705   2.423   6.909   3.579  0.3641 -0.4796 -0.0468
 7043SOL     OW27706   9.844   3.896   4.006 -0.4054 -0.5465  0.0643
 7043SOL    HW127707   9.872   3.832   4.078  2.7780 -1.0648 -1.5415
 7043SOL    HW227708   9.878   3.987   4.029  0.4501 -0.6755 -0.6805
 7044SOL     OW27709   0.738   5.820   2.804  0.0327  0.4719 -0.5388
 7044SOL    HW127710   0.672   5.749   2.829  1.2548 -1.1067 -1.8037
 7044SOL    HW227711   0.826   5.800   2.845  0.0645  1.9697  0.1705
 7045SOL     OW27712   7.766   2.905   2.342  0.3607 -0.1704  0.1103
 7045SOL    HW127713   7.750   2.968   2.418  2.8973  2.6556 -1.5488
 7045SOL    HW227714   7.698   2.920   2.271 -1.2234 -1.9063  1.2101
 7046SOL     OW27715   2.483   2.777   3.363 -0.5963  0.4290 -0.1102
 7046SOL    HW127716   2.489   2.867   3.406  0.5969  0.0526  0.5508
 7046SOL    HW227717   2.466   2.707   3.433 -1.0718  0.0901 -0.5612
 7047SOL     OW27718   2.154   3.600   4.320  0.3270  0.0613  0.3657
 7047SOL    HW127719   2.154   3.596   4.220  1.0743 -0.4069  0.3757
 7047SOL    HW227720   2.150   3.695   4.350 -1.3682  0.1451 -0.0981
 7048SOL     OW27721   9.783   6.782   2.984  0.4882  0.3161 -0.0960
 7048SOL    HW127722   9.705   6.817   2.931  0.9175  0.2762 -0.7564
 7048SOL    HW227723   9.749   6.728   3.061 -0.1616  1.0980  0.1806
 7049SOL     OW27724   0.142   7.932   0.415  0.1131  0.5764 -0.1654
 7049SOL    HW127725   0.116   8.018   0.372  3.5376  1.5002 -0.5012
 7049SOL    HW227726   0.098   7.856   0.367  0.7166  1.8501 -2.8088
 7050SOL     OW27727   1.374   7.099   3.869 -0.0390  0.0851 -0.2831
 7050SOL    HW127728   1.380   7.004   3.899  0.4563  0.4271  0.7004
 7050SOL    HW227729   1.359   7.101   3.770  0.3293 -1.0056 -0.3687
 7053SOL     OW27730   8.103   2.546   4.442  0.6856 -0.5697  0.0894
 7053SOL    HW127731   8.114   2.446   4.439 -2.5367 -1.0051  0.6621
 7053SOL    HW227732   8.035   2.573   4.374 -0.2087  0.9531  1.5617
 7056SOL     OW27733   3.163   6.334   3.414 -0.3814 -0.4555  0.3357
 7056SOL    HW127734   3.148   6.431   3.431  2.8714  0.3388 -0.8611
 7056SOL    HW227735   3.245   6.304   3.464 -0.5465 -2.2285 -0.4210
 7057SOL     OW27736   8.146   4.021   1.721  0.1581  0.4195  0.1842
 7057SOL    HW127737   8.185   4.002   1.811 -1.6997 -0.3303  0.8570
 7057SOL    HW227738   8.107   3.936   1.683  0.0233  0.9445 -0.8703
 7058SOL     OW27739   9.159   0.396   0.685  0.1313 -0.1237 -0.0925
 7058SOL    HW127740   9.078   0.454   0.689  0.5858  0.4513  1.0839
 7058SOL    HW227741   9.219   0.417   0.762  1.0106 -1.1207 -0.4875
 7059SOL     OW27742   1.040   5.108   1.642 -0.0499 -0.1443  0.2971
 7059SOL    HW127743   1.002   5.106   1.734 -1.3052 -0.4314 -0.2136
 7059SOL    HW227744   1.078   5.198   1.623 -0.8689  0.2820  0.6727
 7060SOL     OW27745   5.215   1.514   4.302  0.0237  0.1133 -0.0376
 7060SOL    HW127746   5.170   1.505   4.391 -2.5158  2.4568 -0.9984
 7060SOL    HW227747   5.306   1.472   4.306 -0.6015 -1.1006  3.2041
 7061SOL     OW27748   2.616   0.436   4.052  0.2857 -0.0014  0.2328
 7061SOL    HW127749   2.571   0.398   3.972  0.4875 -2.1552  1.1125
 7061SOL    HW227750   2.552   0.437   4.129  0.6856  0.2095  0.5669
 7062SOL     OW27751   2.607   4.009   2.838 -0.1776  0.5942 -0.3905
 7062SOL    HW127752   2.658   4.085   2.798 -0.2389  0.6592 -0.3441
 7062SOL    HW227753   2.645   3.923   2.804 -0.6227  0.6614 -1.0741
 7063SOL     OW27754   1.884   9.738   1.978  0.0095 -0.6249  0.2214
 7063SOL    HW127755   1.786   9.755   1.969  0.3725  0.8772 -1.1603
 7063SOL    HW227756   1.934   9.795   1.912  1.7899 -1.5877  0.7014
 7064SOL     OW27757   9.529   8.099   3.159 -0.4786  0.2703 -0.2021
 7064SOL    HW127758   9.622   8.107   3.194 -0.4875 -2.8684  0.7042
 7064SOL    HW227759   9.530   8.104   3.059  0.9100 -1.4348 -0.2969
 7065SOL     OW27760   0.594   1.900   0.587 -0.1467 -0.3959  0.4888
 7065SOL    HW127761   0.634   1.989   0.566 -1.1587 -0.1516 -0.4480
 7065SOL    HW227762   0.524   1.878   0.520 -0.1807 -1.7307  0.9442
 7068SOL     OW27763   9.113   3.137   0.380 -0.4186  0.3150 -0.0274
 7068SOL    HW127764   9.182   3.170   0.315  0.5802 -0.2418  0.7492
 7068SOL    HW227765   9.158   3.096   0.459 -1.6450 -0.3579  0.3312
 7069SOL     OW27766   4.843   8.101   3.651 -0.0706 -0.3835 -0.0202
 7069SOL    HW127767   4.750   8.066   3.639 -0.6296  0.6571  1.2383
 7069SOL    HW227768   4.858   8.124   3.747  1.3981 -0.2794 -0.2657
 7070SOL     OW27769   9.615   2.676   0.234 -0.9776  0.1551 -0.1319
 7070SOL    HW127770   9.593   2.720   0.321  0.4368 -0.1880  0.4085
 7070SOL    HW227771   9.714   2.664   0.227 -1.1801 -0.8953 -1.2678
 7072SOL     OW27772   4.581   2.120   4.188  0.3500  0.8703 -0.2067
 7072SOL    HW127773   4.630   2.149   4.106 -0.5080 -2.7812 -2.1116
 7072SOL    HW227774   4.489   2.160   4.189  0.0279  0.1944 -1.5524
 7073SOL     OW27775   2.008   0.918   2.461 -0.1856  0.2642  0.4634
 7073SOL    HW127776   1.944   0.860   2.410 -0.3066  0.8366 -0.0434
 7073SOL    HW227777   2.069   0.860   2.515 -0.4318 -0.3275  0.1214
 7075SOL     OW27778   2.649   8.974   0.077 -0.0853  0.4709  1.1011
 7075SOL    HW127779   2.633   9.004  -0.017 -0.9528 -1.8379  0.4629
 7075SOL    HW227780   2.728   8.913   0.080  0.1556  0.8250  1.9158
 7076SOL     OW27781   4.953   9.723   2.995  0.1009 -0.1125 -0.1230
 7076SOL    HW127782   4.986   9.794   3.058  0.9632 -1.1265  0.5955
 7076SOL    HW227783   4.871   9.756   2.947  1.6065  2.1099 -1.2564
 7077SOL     OW27784   6.154   9.720   2.076 -0.4615 -0.0164  0.5732
 7077SOL    HW127785   6.098   9.802   2.068  0.4453  0.4538 -1.6343
 7077SOL    HW227786   6.109   9.652   2.134 -1.3738  1.9091  2.1313
 7078SOL     OW27787   8.053   5.950   1.386 -0.2376  0.4011 -0.8257
 7078SOL    HW127788   8.095   6.034   1.351  1.6137 -0.2078 -0.1691
 7078SOL    HW227789   8.008   5.901   1.312 -0.4966  1.5047 -1.4006
 7079SOL     OW27790   3.236   8.882   0.976 -0.3566  0.0522 -0.8537
 7079SOL    HW127791   3.150   8.921   0.943 -0.9497 -0.2198  0.3282
 7079SOL    HW227792   3.312   8.916   0.921 -1.0815  1.2889 -1.0991
 7080SOL     OW27793   9.592   3.176   0.674 -0.0307 -0.5494 -0.3313
 7080SOL    HW127794   9.566   3.087   0.710 -0.1311 -0.7651 -0.9282
 7080SOL    HW227795   9.517   3.241   0.688 -0.4460 -0.8766 -1.0025
 7081SOL     OW27796   1.552   7.819   3.948  0.0264 -0.3516 -0.7757
 7081SOL    HW127797   1.457   7.787   3.944  0.8041 -2.7814 -1.0088
 7081SOL    HW227798   1.604   7.778   3.872  1.5137  0.0203  0.0139
 7082SOL     OW27799   7.920   7.066   1.714 -0.4610 -0.6071  0.2955
 7082SOL    HW127800   7.956   7.078   1.806  1.6147 -0.2492 -0.5419
 7082SOL    HW227801   7.970   6.994   1.667 -2.2711 -1.5743 -0.1803
 7083SOL     OW27802   2.270   1.338   2.295 -0.3919  0.1149 -0.0288
 7083SOL    HW127803   2.192   1.368   2.350 -2.5100  0.0981 -2.9537
 7083SOL    HW227804   2.273   1.238   2.293 -0.8787  0.1104 -0.6972
 7084SOL     OW27805   2.644   4.043   0.278  0.5587  0.0509  0.1490
 7084SOL    HW127806   2.735   4.045   0.237  0.9628 -1.1730  0.9780
 7084SOL    HW227807   2.651   4.017   0.374 -0.7828 -1.4128 -0.1304
 7085SOL     OW27808   6.153   9.416   3.759 -0.5379 -0.0498 -0.0920
 7085SOL    HW127809   6.192   9.483   3.695  1.1775 -0.8903  0.0324
 7085SOL    HW227810   6.208   9.332   3.757 -0.7458 -0.2752  2.0912
 7087SOL     OW27811   2.385   6.180   2.119 -0.4714 -0.0701  0.7830
 7087SOL    HW127812   2.442   6.111   2.074 -1.1284  0.2078 -0.5129
 7087SOL    HW227813   2.291   6.147   2.125 -0.7706  0.6499  0.2528
 7088SOL     OW27814   0.203   5.082   0.895  0.1033  0.0601 -0.2957
 7088SOL    HW127815   0.169   4.988   0.902  1.6104 -0.4452  0.4915
 7088SOL    HW227816   0.248   5.095   0.807 -1.0355  0.3660 -0.8374
 7089SOL     OW27817   8.647   7.558   3.318  0.5288 -0.1224 -0.9841
 7089SOL    HW127818   8.688   7.639   3.274  0.6872  0.3850  0.0873
 7089SOL    HW227819   8.703   7.478   3.299  1.5464  0.4097 -0.2817
 7092SOL     OW27820   1.708   3.403   4.235  0.5645  0.0100 -0.2232
 7092SOL    HW127821   1.783   3.447   4.283  1.2898 -0.5162 -0.8563
 7092SOL    HW227822   1.741   3.365   4.148 -0.5947  0.4327 -0.8670
 7093SOL     OW27823   2.569   0.020   0.829 -0.0343 -0.2145  0.3405
 7093SOL    HW127824   2.659   0.063   0.825  1.1976 -2.7071 -0.3234
 7093SOL    HW227825   2.565  -0.040   0.909 -2.0246  1.7354  1.7632
 7094SOL     OW27826   3.421   6.266   4.217  0.1728 -0.3730  0.7723
 7094SOL    HW127827   3.482   6.239   4.143  1.6042 -0.4099  1.9532
 7094SOL    HW227828   3.378   6.353   4.195  0.5632 -0.3961 -0.1132
 7095SOL     OW27829   0.322   9.656   2.935 -0.5332  0.0078  0.0345
 7095SOL    HW127830   0.235   9.703   2.921 -0.6531 -0.1526  0.2494
 7095SOL    HW227831   0.395   9.709   2.891 -0.6564  0.4317  0.3298
 7098SOL     OW27832   7.639   6.015   2.427  0.4171 -0.1058  0.0266
 7098SOL    HW127833   7.543   5.991   2.410  1.3321 -1.8210 -3.1304
 7098SOL    HW227834   7.653   6.112   2.410 -0.3967 -0.2256 -1.4553
 7100SOL     OW27835   1.214   3.876   2.669 -0.2396 -0.2315 -0.0238
 7100SOL    HW127836   1.234   3.944   2.599 -2.3109  1.1067  0.6403
 7100SOL    HW227837   1.261   3.901   2.754 -0.6190  0.1281  0.0832
 7103SOL     OW27838   9.393   5.001   3.847  0.0737 -0.1156 -0.2769
 7103SOL    HW127839   9.311   4.952   3.816  1.0330 -2.7012  1.1362
 7103SOL    HW227840   9.474   4.944   3.834  1.4688  1.7471 -0.0920
 7104SOL     OW27841   3.611   3.468   1.854 -0.4096  0.0449  0.6630
 7104SOL    HW127842   3.645   3.488   1.946  0.9924  0.4274  0.0791
 7104SOL    HW227843   3.642   3.540   1.791 -0.8226 -0.5492 -0.2254
 7107SOL     OW27844   8.330   6.840   3.652  0.1912  0.4442  0.1550
 7107SOL    HW127845   8.401   6.832   3.582  1.9942  3.0937  1.5492
 7107SOL    HW227846   8.354   6.784   3.731 -1.0085 -1.2701 -0.6761
 7108SOL     OW27847   3.443   2.891   3.407  0.5222  0.1688  0.3891
 7108SOL    HW127848   3.475   2.984   3.394  3.1751 -0.3649  2.5469
 7108SOL    HW227849   3.476   2.833   3.332  1.6709  0.3092  0.7882
 7109SOL     OW27850   8.195   6.167   0.137 -0.3801 -0.8896 -0.0880
 7109SOL    HW127851   8.285   6.129   0.162 -0.1479 -1.1140 -1.2437
 7109SOL    HW227852   8.124   6.103   0.166 -0.0045 -2.1061 -1.7584
 7110SOL     OW27853   3.526   3.272   3.959 -0.0755  0.0863 -0.3603
 7110SOL    HW127854   3.601   3.307   3.903  0.3942 -0.4896 -0.0907
 7110SOL    HW227855   3.530   3.172   3.962  0.5347  0.1477  1.5710
 7112SOL     OW27856   3.576   9.187   4.042  0.0495  0.5194  0.1230
 7112SOL    HW127857   3.596   9.096   4.007 -0.2463  0.0007  1.2647
 7112SOL    HW227858   3.488   9.186   4.089 -0.5103  1.6868 -0.8856
 7113SOL     OW27859   1.486   2.307   1.617 -0.3628  0.3090 -0.7539
 7113SOL    HW127860   1.417   2.236   1.604  0.8053 -1.0756  0.3214
 7113SOL    HW227861   1.524   2.299   1.710  2.5496 -0.2055 -1.9250
 7114SOL     OW27862   1.357   4.970   3.269 -0.2871 -0.3867  0.5647
 7114SOL    HW127863   1.295   4.891   3.272  1.0105 -1.4925 -1.1440
 7114SOL    HW227864   1.442   4.947   3.316  0.0662  0.0279  0.1365
 7115SOL     OW27865   2.402   2.752   2.218 -0.6109  0.5630  0.2451
 7115SOL    HW127866   2.468   2.678   2.234  0.0130  1.0917  0.1160
 7115SOL    HW227867   2.397   2.810   2.299  2.2243  2.9866 -1.2127
 7116SOL     OW27868   9.973   4.526   4.253  0.0327 -0.2930 -0.7421
 7116SOL    HW127869  10.028   4.607   4.233  0.2735 -0.4051 -0.5539
 7116SOL    HW227870   9.977   4.463   4.175 -0.3119 -0.0374 -0.9653
 7118SOL     OW27871   7.606   8.026   4.049  0.3651 -0.3334  0.2714
 7118SOL    HW127872   7.513   8.023   4.015  0.9213  2.2445 -1.5510
 7118SOL    HW227873   7.611   8.086   4.129  0.0577 -2.3591  1.8722
 7119SOL     OW27874   1.174   0.874   0.448 -0.0513  0.1777  0.5836
 7119SOL    HW127875   1.260   0.850   0.403 -1.1224 -0.5623 -1.1291
 7119SOL    HW227876   1.183   0.862   0.547  1.4725 -0.9255  0.3183
 7120SOL     OW27877   8.061   9.717   3.165  0.3969  0.0504  0.1011
 7120SOL    HW127878   8.064   9.632   3.112 -0.9632 -0.8045  1.3682
 7120SOL    HW227879   8.105   9.703   3.254  1.0000  0.9428 -0.0490
 7121SOL     OW27880   9.698   2.114   2.932  0.1315  0.0544  0.6961
 7121SOL    HW127881   9.790   2.086   2.908  0.7127  3.8206 -1.7840
 7121SOL    HW227882   9.701   2.180   3.008 -0.3809  1.2593 -0.3107
 7123SOL     OW27883   4.033   9.441   0.168  0.3548  0.5735 -0.3104
 7123SOL    HW127884   4.123   9.457   0.127 -0.7058  0.8146 -2.6137
 7123SOL    HW227885   3.970   9.406   0.099 -0.7765 -1.6561  1.7732
 7124SOL     OW27886   4.615   8.940   3.474  0.3149 -0.6979 -0.2435
 7124SOL    HW127887   4.645   8.853   3.513 -0.3724 -0.9352 -0.2347
 7124SOL    HW227888   4.694   8.998   3.457  0.7614 -1.2582 -0.0811
 7125SOL     OW27889   8.493   6.794   3.429 -0.5150 -0.2656  0.4852
 7125SOL    HW127890   8.591   6.778   3.436 -0.6819 -0.9144  1.3175
 7125SOL    HW227891   8.477   6.889   3.400  0.4210 -0.9812 -2.5910
 7126SOL     OW27892   0.306   1.853   3.693 -0.3540  0.1741 -0.6799
 7126SOL    HW127893   0.380   1.857   3.760 -0.2094  1.0600 -0.8837
 7126SOL    HW227894   0.331   1.789   3.620 -0.2978 -0.4183 -0.1427
 7128SOL     OW27895   7.338   7.857   1.426  0.2920 -0.8253  0.2637
 7128SOL    HW127896   7.278   7.795   1.477 -1.0502  0.3265  0.1038
 7128SOL    HW227897   7.324   7.951   1.458  0.1173 -0.2157 -1.5817
 7129SOL     OW27898   5.813   1.591   3.317 -0.1186 -0.2729  0.5024
 7129SOL    HW127899   5.719   1.608   3.285 -0.0724  0.5058  0.7585
 7129SOL    HW227900   5.857   1.523   3.259 -1.1332 -1.2819  0.8912
 7130SOL     OW27901   9.820   7.105   3.264  0.2259 -0.2595 -0.4399
 7130SOL    HW127902   9.811   7.050   3.347  0.0556 -1.9470 -1.5470
 7130SOL    HW227903   9.735   7.101   3.212 -0.0609  1.7154 -0.1631
 7131SOL     OW27904   9.815   6.732   1.955  0.4923  0.7034 -0.1097
 7131SOL    HW127905   9.786   6.638   1.937 -0.1566  0.7362  0.7395
 7131SOL    HW227906   9.755   6.795   1.906  0.0659  0.7170  0.4210
 7133SOL     OW27907   4.276   0.808   0.363 -0.0897 -0.1235 -0.1905
 7133SOL    HW127908   4.280   0.712   0.393  1.0482  0.7974  2.7826
 7133SOL    HW227909   4.361   0.831   0.316 -0.2593 -0.4842 -0.6850
 7134SOL     OW27910   2.246   4.919   0.302 -0.3312  0.2934 -0.1517
 7134SOL    HW127911   2.168   4.943   0.360  1.0880 -2.6617  3.1426
 7134SOL    HW227912   2.329   4.959   0.339  0.0999  1.5750 -2.4034
 7135SOL     OW27913   1.638   8.888   0.983  0.3077  0.3652 -0.6440
 7135SOL    HW127914   1.608   8.793   0.974 -0.2721  0.5612 -0.8319
 7135SOL    HW227915   1.635   8.914   1.080 -0.0731  0.3628 -0.6534
 7136SOL     OW27916   3.293   6.482   4.094 -0.3042 -0.3617  0.0473
 7136SOL    HW127917   3.233   6.489   4.174  0.8287  0.7432  0.8339
 7136SOL    HW227918   3.357   6.559   4.095  1.6505 -1.9385 -0.3329
 7137SOL     OW27919   3.334   9.814   3.302  0.1012 -0.3358  0.6284
 7137SOL    HW127920   3.416   9.802   3.357  0.0685 -0.6106  0.6192
 7137SOL    HW227921   3.267   9.869   3.353  0.4835  0.3154  0.4340
 7139SOL     OW27922   7.629   8.490   1.786  0.1651 -0.4044  0.1894
 7139SOL    HW127923   7.718   8.534   1.771 -0.2330  0.3764  0.1063
 7139SOL    HW227924   7.613   8.481   1.884 -0.2147  0.5941  0.2258
 7140SOL     OW27925   4.608   8.100   0.743  0.2893 -0.1746  0.1043
 7140SOL    HW127926   4.657   8.138   0.821 -0.0250 -0.0793  0.2552
 7140SOL    HW227927   4.554   8.021   0.772 -2.3728  1.7828  0.6561
 7141SOL     OW27928   2.312   3.735   3.624  0.1587  0.4505  0.0293
 7141SOL    HW127929   2.217   3.744   3.597  0.5604  0.2504 -1.4738
 7141SOL    HW227930   2.353   3.825   3.634  0.2643  0.5067 -0.9386
 7142SOL     OW27931   7.774   4.939   0.727 -0.4471 -0.3774  0.7691
 7142SOL    HW127932   7.729   4.914   0.813 -1.8413  1.2732  0.5631
 7142SOL    HW227933   7.705   4.972   0.662  0.9691  1.4406  0.1481
 7143SOL     OW27934   4.818   7.294   2.429 -0.0656 -0.0943 -0.3842
 7143SOL    HW127935   4.729   7.255   2.452  0.6514 -0.7723  1.3194
 7143SOL    HW227936   4.805   7.375   2.372 -1.6690 -1.3971 -1.9263
 7145SOL     OW27937   9.089   1.886   3.065 -0.1363  0.0375  0.3114
 7145SOL    HW127938   9.007   1.889   3.123 -0.1304  2.4200  0.2366
 7145SOL    HW227939   9.170   1.878   3.123 -0.0269  3.8204  0.7961
 7146SOL     OW27940   8.176   1.796   2.506  0.1976 -0.3436  0.3400
 7146SOL    HW127941   8.102   1.759   2.450 -0.3143 -0.1762  0.9010
 7146SOL    HW227942   8.152   1.889   2.536  0.1363 -0.7138  1.4584
 7147SOL     OW27943   2.314   0.183   2.941 -0.0998  0.0766  0.8302
 7147SOL    HW127944   2.386   0.213   2.879 -0.0805 -0.5187  0.5682
 7147SOL    HW227945   2.351   0.117   3.006 -1.0255 -2.3967 -1.0725
 7148SOL     OW27946   4.281   0.154   4.151 -0.4098 -0.5083 -0.1355
 7148SOL    HW127947   4.235   0.217   4.088 -1.2123 -2.1891 -1.2850
 7148SOL    HW227948   4.222   0.137   4.230  0.2405  0.9608  0.6657
 7149SOL     OW27949   0.675   1.217   2.400 -0.6852 -0.6374  0.1731
 7149SOL    HW127950   0.595   1.248   2.348 -0.5491 -0.5677  0.0059
 7149SOL    HW227951   0.758   1.240   2.350 -0.5675 -0.9034  0.2439
 7150SOL     OW27952   8.255   1.392   1.041  0.2016  0.7412  0.0695
 7150SOL    HW127953   8.242   1.487   1.013  1.7071  0.5996 -1.1638
 7150SOL    HW227954   8.235   1.332   0.964 -1.4081 -0.0056  1.0364
 7151SOL     OW27955   3.318   4.305   2.076  0.6687  0.4883  0.7659
 7151SOL    HW127956   3.311   4.380   2.010 -1.3407 -0.3969 -0.0749
 7151SOL    HW227957   3.231   4.295   2.124  1.8725  0.6264  3.0389
 7152SOL     OW27958   0.636   6.920   3.143 -0.6858 -0.1639  0.1533
 7152SOL    HW127959   0.577   6.965   3.076 -0.2496  0.5913  0.2724
 7152SOL    HW227960   0.657   6.827   3.113  0.4234  0.5470 -1.3119
 7153SOL     OW27961   5.198   9.924   4.023 -0.0998  0.1498 -0.0188
 7153SOL    HW127962   5.254   9.844   4.001 -0.7230 -0.4162  0.4648
 7153SOL    HW227963   5.119   9.927   3.963 -0.4784 -0.0185  0.4670
 7154SOL     OW27964   2.479   0.664   0.284 -0.3150 -0.4217 -0.0579
 7154SOL    HW127965   2.570   0.628   0.305 -0.3659  0.1370  1.1238
 7154SOL    HW227966   2.457   0.739   0.346 -1.5179 -0.4440 -0.4455
 7155SOL     OW27967   7.044   1.549   3.355 -0.5217  0.2037 -0.2717
 7155SOL    HW127968   7.014   1.508   3.268 -0.2213 -0.4528 -0.0702
 7155SOL    HW227969   7.112   1.489   3.398 -0.8701  0.3980  0.5504
 7156SOL     OW27970   9.587   0.326   1.790 -0.3890  1.0829  0.1689
 7156SOL    HW127971   9.640   0.395   1.740  0.7195  0.3622  0.3360
 7156SOL    HW227972   9.555   0.257   1.725  2.0343 -0.4806  0.5979
 7157SOL     OW27973   3.375   9.060   1.929  0.3759  0.1360  0.5569
 7157SOL    HW127974   3.368   9.012   2.016  1.2409 -0.0627  0.5188
 7157SOL    HW227975   3.440   9.013   1.869 -0.0721  0.3764 -0.1292
 7158SOL     OW27976   8.943   8.400   3.045  0.3677 -0.2987 -0.0868
 7158SOL    HW127977   9.024   8.425   2.992  2.0818 -1.5519  1.8542
 7158SOL    HW227978   8.904   8.482   3.087  3.2310 -0.1682  2.4963
 7160SOL     OW27979   4.573   0.533   0.563 -0.3941 -0.0294 -0.0728
 7160SOL    HW127980   4.622   0.612   0.526 -0.4472 -0.3467 -0.8291
 7160SOL    HW227981   4.609   0.511   0.654  0.3285  0.2301 -0.2923
 7161SOL     OW27982   0.189   3.049   3.258 -0.2973  0.1220 -0.2308
 7161SOL    HW127983   0.113   2.985   3.257  1.0360 -1.4763 -1.5576
 7161SOL    HW227984   0.271   3.004   3.291  0.4920  1.3380 -0.4765
 7162SOL     OW27985   2.513   2.289   3.960 -0.4618 -0.1293  0.5275
 7162SOL    HW127986   2.433   2.347   3.946 -1.2540 -1.5887 -1.1255
 7162SOL    HW227987   2.493   2.221   4.030  0.4500  1.5012  2.4279
 7163SOL     OW27988   7.719   8.507   2.375  0.3929  0.3195 -0.1502
 7163SOL    HW127989   7.783   8.431   2.357  0.1128  0.2521 -0.8684
 7163SOL    HW227990   7.768   8.580   2.422  0.9096  0.1039 -0.3384
 7164SOL     OW27991   4.879   3.403   3.318  0.3155  0.2507 -0.4085
 7164SOL    HW127992   4.852   3.408   3.222  0.4130 -0.5291 -0.4819
 7164SOL    HW227993   4.834   3.475   3.370  0.9324  1.2119 -1.2015
 7168SOL     OW27994   1.875   3.529   2.306 -0.7848  0.5830  0.3970
 7168SOL    HW127995   1.793   3.485   2.342 -0.5007  0.1062  0.4741
 7168SOL    HW227996   1.943   3.536   2.379 -0.0678 -0.7170 -0.1332
 7170SOL     OW27997   4.629   1.185   1.217  0.1389 -0.6862 -0.3142
 7170SOL    HW127998   4.543   1.220   1.179 -0.0132  0.5844  1.1665
 7170SOL    HW227999   4.636   1.087   1.198 -1.1125 -0.5839 -1.4017
 7171SOL     OW28000   9.655   5.329   3.819 -0.1614 -0.6325  0.1439
 7171SOL    HW128001   9.583   5.389   3.784  0.2659  0.4477  1.0900
 7171SOL    HW228002   9.619   5.279   3.899 -0.3159 -1.1672 -0.2584
 7172SOL     OW28003   0.254   9.155   1.379  0.2149  0.1411  0.1891
 7172SOL    HW128004   0.262   9.074   1.322 -0.9815  0.8975 -1.0626
 7172SOL    HW228005   0.335   9.213   1.366 -0.4107  0.6878 -1.3470
 7173SOL     OW28006   3.912   3.430   1.117  0.4285  0.4101 -0.1148
 7173SOL    HW128007   3.956   3.480   1.191  0.1544  0.3688  0.0743
 7173SOL    HW228008   3.918   3.332   1.134  0.6141  0.3894 -0.2888
 7174SOL     OW28009   6.725   7.256   3.931 -0.2688 -0.7124  0.0409
 7174SOL    HW128010   6.635   7.231   3.966 -0.8644  0.8277 -0.3450
 7174SOL    HW228011   6.778   7.173   3.912 -1.4276 -1.6154  0.7179
 7175SOL     OW28012   6.074   0.315   2.416 -0.1507 -0.5958  0.2345
 7175SOL    HW128013   6.147   0.286   2.478  0.1523 -2.7520 -1.1091
 7175SOL    HW228014   6.004   0.363   2.468  2.8130  2.7506  1.3753
 7176SOL     OW28015   1.778   3.348   3.406 -0.0797 -0.2999  0.1799
 7176SOL    HW128016   1.697   3.388   3.363 -0.2129 -0.1681  0.5477
 7176SOL    HW228017   1.858   3.366   3.349  0.1043  1.7279  1.0196
 7177SOL     OW28018   1.614   1.344   3.597  0.1539 -0.0309 -0.0980
 7177SOL    HW128019   1.555   1.385   3.527  0.4432  0.7495  0.1129
 7177SOL    HW228020   1.603   1.245   3.595  0.9598 -0.1028 -1.9943
 7178SOL     OW28021   7.789   4.763   1.026  0.3114  0.1174 -0.1533
 7178SOL    HW128022   7.810   4.861   1.024 -0.2040  0.2936  1.9697
 7178SOL    HW228023   7.693   4.748   1.004  0.2598  0.1393  0.0546
 7179SOL     OW28024   0.449   2.895   3.854  0.3845  0.2131 -0.3378
 7179SOL    HW128025   0.546   2.902   3.876 -0.3601  2.1233  2.5011
 7179SOL    HW228026   0.423   2.799   3.850  2.1997 -0.3010 -0.3184
 7180SOL     OW28027   8.881   0.553   0.718  0.2149  0.5303 -0.1093
 7180SOL    HW128028   8.817   0.582   0.646  0.4435  1.6201  0.1090
 7180SOL    HW228029   8.831   0.532   0.801  0.1707  1.9624  0.2440
 7181SOL     OW28030   1.243   2.504   1.291  0.0500  0.4619  0.0362
 7181SOL    HW128031   1.219   2.569   1.219  0.7219 -0.9652 -1.5325
 7181SOL    HW228032   1.343   2.501   1.301  0.1145 -1.3561 -0.9382
 7182SOL     OW28033   2.256   7.681   1.786  0.0936 -0.3199  0.0271
 7182SOL    HW128034   2.287   7.670   1.881  1.4559 -0.1150 -0.3902
 7182SOL    HW228035   2.322   7.639   1.724  0.5824  1.9459 -1.0163
 7183SOL     OW28036   8.071   0.329   0.245  0.1305  0.0328 -0.1922
 7183SOL    HW128037   7.987   0.356   0.198 -1.0298 -0.2158  1.6878
 7183SOL    HW228038   8.150   0.374   0.202 -1.2216  2.2563 -0.3614
 7184SOL     OW28039   4.522   0.794   4.226 -0.0988 -0.5283 -0.5817
 7184SOL    HW128040   4.458   0.832   4.160  0.5390 -1.6009 -1.8471
 7184SOL    HW228041   4.614   0.829   4.209  0.5188 -2.6552 -1.8452
 7185SOL     OW28042   1.298   8.855   2.089 -0.6511  0.5218  0.4494
 7185SOL    HW128043   1.326   8.883   1.997 -0.2188 -0.6907  0.1934
 7185SOL    HW228044   1.312   8.930   2.153 -1.6979  1.6516 -0.6048
 7186SOL     OW28045   7.904   2.668   2.337  0.2539 -0.1619  0.1768
 7186SOL    HW128046   7.823   2.616   2.309  1.0875 -1.5878  0.3394
 7186SOL    HW228047   7.880   2.764   2.346 -1.1256 -0.3671 -0.9928
 7188SOL     OW28048   2.869   3.851   0.668 -0.5385 -0.6104  0.1497
 7188SOL    HW128049   2.943   3.916   0.650 -0.2748 -1.2941 -1.2660
 7188SOL    HW228050   2.863   3.835   0.767  1.0760 -0.4025  0.3013
 7191SOL     OW28051   1.640   1.652   1.436 -0.5639  0.0565 -0.3565
 7191SOL    HW128052   1.699   1.730   1.416 -1.0277  0.1145 -1.5681
 7191SOL    HW228053   1.553   1.684   1.473 -1.0490  0.1718 -1.5764
 7192SOL     OW28054   4.543   2.938   1.418 -0.3168 -0.9830  0.0101
 7192SOL    HW128055   4.631   2.892   1.406 -0.7040 -1.9344  0.7840
 7192SOL    HW228056   4.555   3.036   1.405  0.8673 -1.1077  0.1311
 7193SOL     OW28057   5.689   1.305   2.701 -0.2494  0.3530 -0.3378
 7193SOL    HW128058   5.757   1.253   2.649 -0.3484  2.5635 -2.7376
 7193SOL    HW228059   5.611   1.245   2.721  1.8177 -1.8789  1.4544
 7194SOL     OW28060   7.632   0.323   2.718  0.2836  0.1456  0.1410
 7194SOL    HW128061   7.724   0.327   2.678  0.1799  1.1167 -0.0041
 7194SOL    HW228062   7.566   0.298   2.647  0.3980 -0.3612  0.2048
 7195SOL     OW28063   1.867   1.157   4.035 -0.2252 -0.0266 -0.7016
 7195SOL    HW128064   1.823   1.151   4.124  0.9649 -1.6541 -0.2071
 7195SOL    HW228065   1.836   1.082   3.977  1.4934 -0.9095 -0.5103
 7196SOL     OW28066   3.281   1.491   0.186  0.2016  0.0161  0.2245
 7196SOL    HW128067   3.281   1.396   0.215 -0.0946  0.2069  0.8868
 7196SOL    HW228068   3.256   1.549   0.264 -2.2759  0.4226 -0.8103
 7197SOL     OW28069   8.847   1.997   2.651 -0.4903 -0.2473  0.3205
 7197SOL    HW128070   8.852   1.923   2.718  0.2911 -0.1383  0.3825
 7197SOL    HW228071   8.819   1.960   2.562 -0.8549 -0.4964  0.5395
 7199SOL     OW28072   3.843   3.134   0.196  0.9214 -0.9710  0.2812
 7199SOL    HW128073   3.909   3.109   0.125  1.2532  1.9813 -0.5094
 7199SOL    HW228074   3.755   3.090   0.177  1.0559 -0.3577 -1.8910
 7200SOL     OW28075   4.783   2.648   0.648 -0.6802 -0.4611  0.0740
 7200SOL    HW128076   4.790   2.685   0.555  0.2113  0.1051  0.3615
 7200SOL    HW228077   4.809   2.552   0.647 -1.0947 -0.5714 -0.3382
 7202SOL     OW28078   1.437   1.696   3.612  0.3426 -0.1295 -0.1295
 7202SOL    HW128079   1.427   1.646   3.526  1.8566 -1.1583  0.2812
 7202SOL    HW228080   1.507   1.653   3.668 -0.5953  0.5639  1.6171
 7203SOL     OW28081   0.658   2.265   0.266  0.5073 -0.1388  0.2335
 7203SOL    HW128082   0.573   2.309   0.294  0.5189 -0.0308  0.0998
 7203SOL    HW228083   0.725   2.335   0.241  0.6702 -0.2202  0.4376
 7204SOL     OW28084   2.784   5.012   2.967  0.2935  0.7417 -0.2235
 7204SOL    HW128085   2.881   4.989   2.977  0.4986  2.1352  1.1160
 7204SOL    HW228086   2.765   5.038   2.873  1.3443  1.0301 -0.3556
 7205SOL     OW28087   2.919   8.362   3.978 -0.0080 -0.5987  0.2204
 7205SOL    HW128088   2.860   8.443   3.974  0.0315 -0.5802 -0.0161
 7205SOL    HW228089   2.970   8.354   3.892  1.3259  0.1215  0.9405
 7206SOL     OW28090   1.786   7.886   2.943  0.1453 -0.2585 -0.1193
 7206SOL    HW128091   1.697   7.898   2.898  0.0548  1.0084  0.3712
 7206SOL    HW228092   1.775   7.896   3.042  0.8283 -0.1556 -0.0510
 7208SOL     OW28093   8.586   0.099   1.845 -0.0282 -0.5834 -0.6220
 7208SOL    HW128094   8.619   0.187   1.810 -1.3377 -0.0884 -0.6417
 7208SOL    HW228095   8.486   0.101   1.851  0.1129 -0.7087  2.9584
 7209SOL     OW28096   2.416   0.236   4.219 -0.3931 -0.4653  0.0548
 7209SOL    HW128097   2.491   0.262   4.279  0.0390 -0.4485 -0.4831
 7209SOL    HW228098   2.417   0.136   4.207  0.4881 -0.3369 -1.1494
 7210SOL     OW28099   0.123   9.319   1.072 -0.2344 -0.1724  0.1487
 7210SOL    HW128100   0.208   9.372   1.063  0.2043 -0.5778  1.6145
 7210SOL    HW228101   0.067   9.331   0.990  1.2996 -0.0108 -0.8985
 7211SOL     OW28102   1.470   7.566   1.801 -0.1238  0.4571  0.3448
 7211SOL    HW128103   1.477   7.623   1.720  1.6277  1.7860  1.3978
 7211SOL    HW228104   1.468   7.624   1.883 -2.3103 -0.8300  1.2581
 7212SOL     OW28105   9.776   7.761   0.327  0.0880  0.1804  0.1433
 7212SOL    HW128106   9.721   7.680   0.306  0.6956  0.3919 -2.4337
 7212SOL    HW228107   9.873   7.738   0.322  0.2555  0.8714  0.1376
 7213SOL     OW28108   1.948   2.086   2.891 -0.5464  0.1190  0.2329
 7213SOL    HW128109   2.011   2.043   2.956 -0.1838 -1.1621 -0.9438
 7213SOL    HW228110   1.999   2.124   2.815 -1.0657  0.5790  0.1105
 7215SOL     OW28111   8.678   6.473   2.066 -0.3220  0.2051 -0.6350
 7215SOL    HW128112   8.602   6.463   2.130  1.8312 -0.8117  1.8621
 7215SOL    HW228113   8.760   6.503   2.115  1.6677 -1.5853 -2.7081
 7216SOL     OW28114   3.837   0.337   1.698 -0.4418 -0.4105  0.2950
 7216SOL    HW128115   3.761   0.363   1.758 -0.3617 -0.2398  0.3239
 7216SOL    HW228116   3.827   0.385   1.610 -0.8778 -1.1119 -0.0404
 7217SOL     OW28117   4.279   0.225   2.595 -0.4935 -0.1464  0.6236
 7217SOL    HW128118   4.291   0.129   2.570 -0.7617 -0.0471  0.1087
 7217SOL    HW228119   4.244   0.276   2.517  0.6211  0.5762  0.5722
 7218SOL     OW28120   3.830   1.570   2.339 -0.2336 -0.3826  0.0564
 7218SOL    HW128121   3.917   1.529   2.309 -0.4224 -2.0505  1.6500
 7218SOL    HW228122   3.837   1.593   2.436 -0.7819  1.6980 -0.3931
 7219SOL     OW28123   3.323   9.322   0.691  0.0529 -0.1593  0.0041
 7219SOL    HW128124   3.299   9.235   0.735  2.2330 -0.4291  0.7045
 7219SOL    HW228125   3.370   9.381   0.757 -0.1209  0.9854 -0.8798
 7220SOL     OW28126   8.380   5.634   1.028  0.3240  0.0880  0.2727
 7220SOL    HW128127   8.296   5.582   1.042 -0.1203  1.0626  1.4076
 7220SOL    HW228128   8.359   5.732   1.028  1.1126  0.2831 -2.0121
 7221SOL     OW28129   2.673   5.855   0.726 -0.3112 -0.0368 -0.6287
 7221SOL    HW128130   2.721   5.931   0.769 -0.3010 -0.3665 -0.0487
 7221SOL    HW228131   2.576   5.877   0.718 -0.2750  0.1156 -0.6362
 7222SOL     OW28132   0.008   0.817   0.337 -0.2406  0.3597 -0.4736
 7222SOL    HW128133  -0.048   0.873   0.398  0.0304  0.2882 -0.1595
 7222SOL    HW228134  -0.004   0.848   0.243  0.0266  1.0409 -0.2841
 7223SOL     OW28135   1.065   1.476   1.027 -0.6211 -0.2369  0.2636
 7223SOL    HW128136   1.044   1.473   0.930 -1.5762 -0.9775  0.4864
 7223SOL    HW228137   1.152   1.524   1.041 -0.0913 -0.8011 -1.0152
 7224SOL     OW28138   3.483   7.521   3.035 -0.4169 -0.2469  0.2903
 7224SOL    HW128139   3.477   7.519   3.135  0.4598 -0.7551  0.3366
 7224SOL    HW228140   3.398   7.488   2.996 -0.6511 -0.3389  0.8727
 7225SOL     OW28141   3.826   5.217   1.124  0.1495 -0.0287  0.1087
 7225SOL    HW128142   3.853   5.313   1.130 -1.0965  0.2802  1.0417
 7225SOL    HW228143   3.727   5.210   1.138  0.2319 -1.4441  0.0099
 7226SOL     OW28144   2.115   4.802   0.781  0.5161 -0.2720 -0.0702
 7226SOL    HW128145   2.016   4.784   0.786  0.0290  1.9580 -0.9923
 7226SOL    HW228146   2.149   4.826   0.872 -0.3100  1.4085 -0.1920
 7227SOL     OW28147   4.058   7.451   3.107  0.3125  0.1738  0.6372
 7227SOL    HW128148   4.064   7.527   3.042 -1.2414  1.4806  1.9866
 7227SOL    HW228149   4.037   7.487   3.198  0.5471 -1.8079  1.4934
 7228SOL     OW28150   6.228   8.332   2.260  0.1760 -0.1439  0.4604
 7228SOL    HW128151   6.261   8.423   2.233  1.1940 -0.5178  0.4041
 7228SOL    HW228152   6.304   8.267   2.254 -0.4547 -0.9160  0.8786
 7229SOL     OW28153   7.466   4.860   0.181 -0.1056 -0.0280 -0.2501
 7229SOL    HW128154   7.405   4.844   0.103 -1.6657  1.3493  0.6291
 7229SOL    HW228155   7.561   4.845   0.154 -0.7447 -1.0856 -1.9779
 7230SOL     OW28156   9.065   1.415   4.091 -0.9122 -0.3126  0.4820
 7230SOL    HW128157   9.051   1.355   4.170  0.9157  1.1158  1.9182
 7230SOL    HW228158   8.985   1.409   4.031 -1.8541 -2.2543  1.8545
 7231SOL     OW28159   8.421   9.579   2.812  0.3779 -0.0248 -0.0992
 7231SOL    HW128160   8.408   9.655   2.748  0.8717  0.1850  0.0531
 7231SOL    HW228161   8.501   9.596   2.868  1.0472 -1.1172 -0.7095
 7232SOL     OW28162   9.255   2.846   1.426 -0.8734 -1.0702 -0.4118
 7232SOL    HW128163   9.334   2.785   1.433  0.3551  0.4731 -0.5655
 7232SOL    HW228164   9.249   2.882   1.333 -1.3324 -0.6503 -0.2197
 7234SOL     OW28165   1.231   4.033   2.209 -0.2410 -0.2946  0.5286
 7234SOL    HW128166   1.230   4.018   2.110 -0.4437  1.1695  0.3025
 7234SOL    HW228167   1.326   4.040   2.241 -0.0965 -2.8801  0.7902
 7235SOL     OW28168   4.991   7.312   1.309 -0.1900  0.1662 -0.2000
 7235SOL    HW128169   5.080   7.268   1.315 -0.4098 -0.2265  0.1921
 7235SOL    HW228170   5.002   7.406   1.276  0.2212 -0.3553 -1.5560
 7236SOL     OW28171   4.211   6.860   3.444 -0.2564 -0.2285 -0.2892
 7236SOL    HW128172   4.237   6.859   3.540  0.6750 -1.7597 -0.5445
 7236SOL    HW228173   4.111   6.856   3.436 -0.3666  0.5340  0.6128
 7237SOL     OW28174   7.231   1.207   3.912  0.4376  0.3156  0.0633
 7237SOL    HW128175   7.177   1.260   3.847  2.2375 -1.6143 -3.1524
 7237SOL    HW228176   7.172   1.142   3.960 -0.9799  2.0300  0.7085
 7240SOL     OW28177   0.824   9.326   3.192  0.3065 -0.2557 -0.3773
 7240SOL    HW128178   0.831   9.235   3.150  1.7355 -0.3630  0.0900
 7240SOL    HW228179   0.757   9.380   3.141 -0.1981 -1.4034 -0.9604
 7241SOL     OW28180   8.534   0.540   3.772  0.1960 -0.4918  0.6208
 7241SOL    HW128181   8.437   0.557   3.755 -0.3950 -1.6651  2.6087
 7241SOL    HW228182   8.571   0.483   3.699 -0.3036  0.9311 -0.7612
 7242SOL     OW28183   0.328   0.347   0.107  0.0967  0.5840 -0.3485
 7242SOL    HW128184   0.364   0.430   0.066 -1.1096  1.8634  1.1256
 7242SOL    HW228185   0.359   0.340   0.202  0.1905 -0.6415 -0.4609
 7244SOL     OW28186   8.865   5.444   0.895 -0.4060  0.3654 -0.3128
 7244SOL    HW128187   8.777   5.451   0.942 -0.0401 -1.3333  0.7076
 7244SOL    HW228188   8.888   5.347   0.883  1.7685  0.7736  0.3397
 7245SOL     OW28189   1.786   0.589   4.233 -0.1879  0.4029 -0.3345
 7245SOL    HW128190   1.877   0.598   4.192 -0.6718 -0.0708 -1.5251
 7245SOL    HW228191   1.724   0.657   4.193 -1.4743 -2.0704 -2.7076
 7246SOL     OW28192   2.792   0.736   3.857 -0.7793  0.0914 -0.2867
 7246SOL    HW128193   2.829   0.650   3.890  0.1142  0.7041  0.3329
 7246SOL    HW228194   2.751   0.786   3.933  0.6611  1.1932 -0.2092
 7247SOL     OW28195   8.846   9.624   2.520 -0.1549 -0.3769  0.3994
 7247SOL    HW128196   8.796   9.682   2.584  0.1115  0.6002 -0.2785
 7247SOL    HW228197   8.928   9.671   2.489  0.3239 -1.3094  0.2250
 7248SOL     OW28198   4.256   8.055   1.547  0.1460  0.1639  0.0680
 7248SOL    HW128199   4.199   8.125   1.590 -0.6619 -0.9884  0.9019
 7248SOL    HW228200   4.206   7.969   1.541  1.1549 -0.3785 -0.8776
 7249SOL     OW28201   8.747   6.556   1.817 -0.1217 -0.5410 -0.3119
 7249SOL    HW128202   8.709   6.506   1.895  0.9066 -1.3774 -0.3306
 7249SOL    HW228203   8.847   6.547   1.817  0.1356  1.8525 -0.0958
 7250SOL     OW28204   3.861   6.560   2.574  0.4705 -1.1330 -0.4922
 7250SOL    HW128205   3.940   6.522   2.526  1.0311  1.1620 -1.4752
 7250SOL    HW228206   3.778   6.533   2.526  0.8805 -0.8166 -1.4011
 7251SOL     OW28207   8.351   7.058   3.418  0.6253 -0.0664 -0.0480
 7251SOL    HW128208   8.274   6.997   3.395 -0.3870  2.3265 -3.3189
 7251SOL    HW228209   8.329   7.108   3.502  0.4326 -2.3757  1.3327
 7252SOL     OW28210   2.357   0.723   2.244 -0.3343 -0.2767  0.0616
 7252SOL    HW128211   2.328   0.735   2.149 -0.6801 -2.0786 -0.0751
 7252SOL    HW228212   2.401   0.807   2.276 -1.9803  1.0569 -1.0519
 7253SOL     OW28213   4.979   2.475   0.169 -0.1754 -0.5215  0.1583
 7253SOL    HW128214   4.946   2.456   0.076  1.0463 -2.0442 -0.0022
 7253SOL    HW228215   4.940   2.409   0.232 -1.0165  0.5246  0.7411
 7254SOL     OW28216   4.284   4.917   1.507 -0.2113 -1.0000 -0.0009
 7254SOL    HW128217   4.375   4.939   1.540  1.2671 -2.6493 -2.7846
 7254SOL    HW228218   4.267   4.966   1.421 -3.3400  1.9927  2.1989
 7255SOL     OW28219   7.138   0.836   3.076  0.2009 -0.0795 -0.5872
 7255SOL    HW128220   7.049   0.798   3.048  0.1211  0.0381 -0.4953
 7255SOL    HW228221   7.128   0.880   3.165  0.6056 -1.0373 -0.0626
 7256SOL     OW28222   2.881   5.600   1.238 -0.1996  0.1326  0.0183
 7256SOL    HW128223   2.834   5.678   1.198 -0.2936 -0.9911 -2.1572
 7256SOL    HW228224   2.821   5.555   1.305 -0.7787  0.9105  0.0228
 7257SOL     OW28225   3.782   4.703   2.027  0.1705 -0.1041  0.1106
 7257SOL    HW128226   3.699   4.758   2.031 -0.6088 -1.0360 -2.4908
 7257SOL    HW228227   3.849   4.749   1.968  0.9631 -0.1012  0.9943
 7258SOL     OW28228   9.638   8.334   4.175  0.5397  0.4726  0.1111
 7258SOL    HW128229   9.558   8.299   4.127 -0.3938  0.5172  1.6070
 7258SOL    HW228230   9.719   8.282   4.147 -0.4036 -1.1705  0.3675
 7259SOL     OW28231   8.499   0.258   3.852 -0.0875 -0.0790 -0.4262
 7259SOL    HW128232   8.522   0.340   3.799  1.5432 -1.0434 -1.2517
 7259SOL    HW228233   8.563   0.249   3.928 -1.5978  0.5647  0.9549
 7260SOL     OW28234   3.946   6.809   2.389 -0.4438 -0.0120  0.1504
 7260SOL    HW128235   3.926   6.900   2.354 -0.2466  0.2528  0.7221
 7260SOL    HW228236   3.915   6.740   2.324  1.3006  0.4925 -1.2491
 7261SOL     OW28237   5.160   2.679   2.033  0.2894  0.0138  0.1317
 7261SOL    HW128238   5.089   2.612   2.017 -0.9576  1.1158  0.8885
 7261SOL    HW228239   5.189   2.719   1.946  0.8065 -1.2514 -0.2847
 7262SOL     OW28240   0.578   7.076   2.920  0.2941 -0.1278  0.1686
 7262SOL    HW128241   0.677   7.084   2.926  0.4593 -1.0022 -1.1557
 7262SOL    HW228242   0.547   7.110   2.831 -0.4346 -1.1172  0.0340
 7263SOL     OW28243   3.735   7.546   1.401 -0.4471  0.6240 -0.4304
 7263SOL    HW128244   3.805   7.616   1.416  1.1894 -1.1034  0.3497
 7263SOL    HW228245   3.751   7.501   1.313  0.1956 -0.5793  0.2790
 7264SOL     OW28246   1.851   5.413   3.962  0.3671  0.4108 -0.2517
 7264SOL    HW128247   1.869   5.317   3.984  0.7716 -0.1212 -2.7783
 7264SOL    HW228248   1.938   5.462   3.957  0.2208  0.7110  0.1402
 7265SOL     OW28249   3.394   4.925   3.308  0.3216  0.0171 -0.3533
 7265SOL    HW128250   3.392   4.857   3.382  0.2240 -0.5131 -0.8466
 7265SOL    HW228251   3.408   5.016   3.348  1.2999 -0.3801  0.2381
 7266SOL     OW28252   3.450   8.135   1.559 -0.7097  0.1074 -0.7082
 7266SOL    HW128253   3.415   8.084   1.638  0.7490 -1.2492 -0.9235
 7266SOL    HW228254   3.448   8.233   1.580 -1.6015 -0.1481  0.4884
 7267SOL     OW28255   2.070   6.470   1.745 -0.0979  0.4213 -0.4380
 7267SOL    HW128256   2.019   6.410   1.807  1.9795 -0.8359  0.0925
 7267SOL    HW228257   2.120   6.538   1.799  1.2184 -0.2857 -0.7590
 7268SOL     OW28258   6.142   9.485   2.836 -0.1912  0.0059 -0.0417
 7268SOL    HW128259   6.207   9.415   2.866 -0.9441 -0.4036  0.6661
 7268SOL    HW228260   6.090   9.451   2.757 -0.6986 -0.3274  0.4280
 7269SOL     OW28261   1.357   5.462   1.677  0.0472  0.3225 -0.0917
 7269SOL    HW128262   1.312   5.551   1.667 -0.3401  0.1008 -0.3295
 7269SOL    HW228263   1.456   5.476   1.685 -0.0433  0.7963  0.2234
 7270SOL     OW28264   8.334   2.927   3.114  0.1761 -0.6965  0.2147
 7270SOL    HW128265   8.336   2.859   3.187  0.2601 -0.5584  0.3416
 7270SOL    HW228266   8.254   2.912   3.056  0.6137 -1.3824 -0.2127
 7271SOL     OW28267   9.583   2.741   1.078  0.0657 -0.4117 -0.1270
 7271SOL    HW128268   9.654   2.678   1.108  0.4433 -0.1213 -0.4153
 7271SOL    HW228269   9.587   2.752   0.979 -0.9762 -1.1087 -0.2536
 7273SOL     OW28270   3.254   5.774   0.600 -0.0331 -0.0163  0.0169
 7273SOL    HW128271   3.302   5.861   0.594  1.2856 -0.5751  1.8968
 7273SOL    HW228272   3.179   5.782   0.665  1.4917 -0.8445  1.9570
 7274SOL     OW28273   8.148   2.379   2.160 -0.1914 -0.1371 -0.6035
 7274SOL    HW128274   8.180   2.462   2.114  0.4928 -0.4081 -0.6368
 7274SOL    HW228275   8.064   2.398   2.210  0.5525  0.8474  0.2765
 7275SOL     OW28276   0.527   3.227   0.755  0.6162  0.4355 -0.2444
 7275SOL    HW128277   0.541   3.261   0.661 -0.7988  0.0168 -0.6170
 7275SOL    HW228278   0.434   3.191   0.764  1.2489 -0.9711  0.8837
 7276SOL     OW28279   3.568   9.908   0.645 -0.1437 -0.6773  0.6729
 7276SOL    HW128280   3.646   9.912   0.582 -0.0837  0.8571  0.8389
 7276SOL    HW228281   3.506   9.834   0.617  0.7713 -1.1450 -0.1413
 7277SOL     OW28282   8.722   1.506   1.941 -0.7236  0.3575  0.5587
 7277SOL    HW128283   8.664   1.516   1.861 -0.8783  1.4383  0.7950
 7277SOL    HW228284   8.813   1.545   1.922 -0.7399  0.5565  0.8768
 7279SOL     OW28285   8.511   7.133   2.863 -0.0755 -0.4601 -0.4271
 7279SOL    HW128286   8.608   7.114   2.877 -0.4554 -0.8571  1.9194
 7279SOL    HW228287   8.483   7.206   2.926 -0.5363  2.1022 -3.4800
 7280SOL     OW28288   7.679   0.539   1.717 -0.1141  0.0285 -0.0080
 7280SOL    HW128289   7.706   0.634   1.729  0.6013 -0.1987  0.2487
 7280SOL    HW228290   7.581   0.530   1.731  0.2309  0.2683  2.9382
 7281SOL     OW28291   7.696   3.024   2.572  0.3227  0.2483  1.0368
 7281SOL    HW128292   7.716   2.980   2.660  0.5459 -0.7733  0.4831
 7281SOL    HW228293   7.758   3.101   2.558  3.4761 -2.4255 -0.3328
 7282SOL     OW28294   3.630   7.363   1.082  0.4515 -0.1280  0.2230
 7282SOL    HW128295   3.539   7.370   1.122  0.0627 -1.6125 -0.3679
 7282SOL    HW228296   3.622   7.343   0.985  1.4070  2.0177 -0.3413
 7284SOL     OW28297   1.145   9.835   0.724 -0.1534 -0.1391  0.4754
 7284SOL    HW128298   1.183   9.922   0.753  0.3335 -0.2848  0.2826
 7284SOL    HW228299   1.206   9.792   0.658 -1.2636  0.2101 -0.8079
 7285SOL     OW28300   7.769   8.005   3.042  0.2383  0.1305 -0.0648
 7285SOL    HW128301   7.859   8.020   3.083  0.8157 -2.6924 -0.1289
 7285SOL    HW228302   7.781   7.970   2.949 -0.8508 -2.0941  0.5992
 7286SOL     OW28303   4.746   2.424   4.182 -0.5840 -0.2287 -0.1659
 7286SOL    HW128304   4.715   2.335   4.148  0.7910  0.4748 -3.5163
 7286SOL    HW228305   4.688   2.496   4.143  0.2037  0.5388  0.0768
 7288SOL     OW28306   4.021   4.032   1.964 -0.0016  0.3931 -0.7599
 7288SOL    HW128307   4.092   3.983   2.014 -0.8015 -3.0087 -2.7668
 7288SOL    HW228308   4.049   4.043   1.869 -0.7462  2.0527 -0.8058
 7289SOL     OW28309   8.776   2.814   3.774 -0.0750  0.6099  0.8282
 7289SOL    HW128310   8.843   2.742   3.793  1.2066  1.4690 -0.3382
 7289SOL    HW228311   8.733   2.843   3.859  1.6581  0.6345  1.7068
 7290SOL     OW28312   8.439   6.097   0.192  0.1965 -0.6018  0.2242
 7290SOL    HW128313   8.471   6.154   0.268  1.4202 -1.8910  0.6939
 7290SOL    HW228314   8.510   6.092   0.122 -1.1904  1.1411 -1.3499
 7291SOL     OW28315   0.302   6.389   1.591 -0.3908 -0.4450 -0.6551
 7291SOL    HW128316   0.393   6.427   1.578 -0.1104 -1.3142 -1.2233
 7291SOL    HW228317   0.292   6.306   1.537 -1.2371 -0.8053  0.0402
 7292SOL     OW28318   0.741   3.828   1.540 -0.0818  0.0357  0.4007
 7292SOL    HW128319   0.802   3.772   1.596 -1.7634 -3.4591 -1.1056
 7292SOL    HW228320   0.749   3.799   1.445 -2.4012  1.0798 -0.1276
 7294SOL     OW28321   1.856   6.150   2.012  0.2437  0.1422 -0.3115
 7294SOL    HW128322   1.850   6.161   1.913  0.8039  1.6037 -0.1897
 7294SOL    HW228323   1.910   6.224   2.051 -0.7710  0.1125  1.1962
 7295SOL     OW28324   3.899   7.678   1.811  0.3968  0.6104 -0.4029
 7295SOL    HW128325   3.806   7.650   1.787  0.9987 -0.4420 -1.6008
 7295SOL    HW228326   3.946   7.602   1.855  0.7368  1.0865  0.0483
 7296SOL     OW28327   2.896   2.365   3.348  0.1092  0.2214  0.1879
 7296SOL    HW128328   2.868   2.315   3.430  0.1555 -0.7083 -0.3584
 7296SOL    HW228329   2.928   2.301   3.279  1.5986  1.1229  0.0217
 7297SOL     OW28330   0.050   7.256   1.414 -0.2875 -0.1102 -0.1931
 7297SOL    HW128331  -0.035   7.224   1.457 -0.4627  0.4515 -0.1138
 7297SOL    HW228332   0.102   7.311   1.479 -0.5993  0.8258 -0.7194
 7298SOL     OW28333   5.477   9.310   1.364 -0.2872 -0.3736 -0.2469
 7298SOL    HW128334   5.394   9.362   1.340  0.7288  1.5092  0.2122
 7298SOL    HW228335   5.556   9.353   1.321  0.6202 -1.4208  0.3641
 7300SOL     OW28336   2.053   9.146   0.256 -0.6775 -0.5056 -0.2407
 7300SOL    HW128337   2.064   9.122   0.159 -2.7803 -0.7550 -0.4587
 7300SOL    HW228338   1.956   9.140   0.280 -0.3692  1.0762  1.4884
 7301SOL     OW28339   2.983   6.428   1.056  0.5032  0.6068 -0.0444
 7301SOL    HW128340   3.025   6.454   1.143 -1.1182  1.1360  0.5907
 7301SOL    HW228341   2.884   6.434   1.063  0.3684  1.3842 -2.1726
 7302SOL     OW28342   0.797   4.587   0.983 -0.3621 -0.1287 -0.0982
 7302SOL    HW128343   0.845   4.508   1.018 -2.4982 -1.9043 -1.0451
 7302SOL    HW228344   0.826   4.669   1.033  2.0989 -1.4273  0.6624
 7303SOL     OW28345   9.296   4.384   2.802  0.2837 -0.2690  0.2419
 7303SOL    HW128346   9.286   4.430   2.890  2.6980 -0.1168  0.4881
 7303SOL    HW228347   9.207   4.374   2.759 -0.5627  2.6073  1.2173
 7304SOL     OW28348   5.228   2.811   0.598  0.3456  0.4042 -0.0219
 7304SOL    HW128349   5.223   2.837   0.502 -1.1606 -2.9755 -0.9054
 7304SOL    HW228350   5.311   2.851   0.639  0.9239  1.9859 -2.6419
 7305SOL     OW28351   1.744   1.295   2.644 -0.6315 -0.1240 -0.1208
 7305SOL    HW128352   1.717   1.231   2.715 -0.7471 -1.5764 -1.4355
 7305SOL    HW228353   1.819   1.256   2.591 -1.7765  0.0935 -1.9674
 7306SOL     OW28354   9.899   3.086   2.290  0.1479  0.0225  0.1223
 7306SOL    HW128355   9.937   3.034   2.367  0.1810  0.6595  0.5483
 7306SOL    HW228356   9.908   3.184   2.310 -0.8756  0.1816 -0.1920
 7307SOL     OW28357   3.620   9.724   3.419 -0.6925 -0.6766  0.0702
 7307SOL    HW128358   3.615   9.800   3.484 -1.1847  0.0500 -0.8030
 7307SOL    HW228359   3.713   9.716   3.384 -0.8387  0.1240 -0.5261
 7308SOL     OW28360   0.670   8.026   3.856 -0.1756  0.4600  0.4223
 7308SOL    HW128361   0.770   8.023   3.853 -0.1262  0.7563  1.4778
 7308SOL    HW228362   0.640   8.111   3.898 -0.8599  0.1117  0.6634
 7309SOL     OW28363   9.836   8.472   3.515 -0.8372  0.1953 -0.1860
 7309SOL    HW128364   9.774   8.519   3.578 -0.7644 -1.5715  1.2367
 7309SOL    HW228365   9.787   8.452   3.430 -1.9524 -0.3470  0.5724
 7311SOL     OW28366   4.490   9.077   3.667 -0.6839 -0.3229 -0.0931
 7311SOL    HW128367   4.543   9.048   3.747  0.0714  0.1291 -0.4309
 7311SOL    HW228368   4.516   9.022   3.588 -0.1024  0.4717 -0.4587
 7312SOL     OW28369   0.518   2.024   0.250 -0.4090  0.0931 -0.5210
 7312SOL    HW128370   0.562   1.935   0.264  0.1779  0.7337  2.0838
 7312SOL    HW228371   0.588   2.096   0.249 -0.9879  0.6521 -1.3482
 7313SOL     OW28372   3.138   4.721   3.820  0.3110 -0.0263 -0.5681
 7313SOL    HW128373   3.041   4.740   3.810  0.4163  1.0635  0.4711
 7313SOL    HW228374   3.188   4.805   3.840  1.0117 -1.0513  2.2858
 7314SOL     OW28375   2.089   2.321   2.152 -0.2087  0.2073 -0.1837
 7314SOL    HW128376   2.102   2.350   2.246  0.2328  1.6614 -0.6805
 7314SOL    HW228377   2.171   2.343   2.098 -0.9053  0.4448 -1.1608
 7315SOL     OW28378   2.595   5.963   0.399  0.4525  0.7098  0.8541
 7315SOL    HW128379   2.627   5.936   0.308  0.8474  2.3791  0.4843
 7315SOL    HW228380   2.635   5.902   0.467 -0.2341 -0.8522 -0.1224
 7316SOL     OW28381   6.330   9.966   4.077 -0.3408  0.2307 -0.7627
 7316SOL    HW128382   6.248   9.912   4.096 -0.1712 -0.5308 -2.1543
 7316SOL    HW228383   6.411   9.908   4.085 -0.0121  0.7399 -0.3797
 7317SOL     OW28384   9.264   9.967   2.373  0.0764 -0.0300  0.4460
 7317SOL    HW128385   9.347   9.982   2.427  0.1232  3.2456 -0.4463
 7317SOL    HW228386   9.229  10.055   2.341 -3.0931 -1.4713 -0.1890
 7320SOL     OW28387   3.041   3.536   1.118  0.3232  0.1323  0.6920
 7320SOL    HW128388   2.989   3.514   1.201 -0.4784  0.7674  0.3713
 7320SOL    HW228389   3.119   3.474   1.110 -0.0020 -0.4000  1.5408
 7321SOL     OW28390   1.066   9.292   0.569 -0.6318  0.3525  0.2103
 7321SOL    HW128391   1.021   9.259   0.486  0.2968  1.7683 -0.8942
 7321SOL    HW228392   1.014   9.367   0.608  0.0750  1.1427 -0.3450
 7322SOL     OW28393   7.431   8.430   0.950  0.7975  0.0805 -0.1097
 7322SOL    HW128394   7.375   8.386   1.020 -0.3011  0.3876 -0.7892
 7322SOL    HW228395   7.421   8.529   0.956  1.5713  0.1573  0.0090
 7323SOL     OW28396   3.851   8.153   4.306 -1.0220 -0.4565 -0.5778
 7323SOL    HW128397   3.871   8.072   4.252  0.5805 -0.3925 -0.1037
 7323SOL    HW228398   3.843   8.127   4.403  0.1067  0.0269 -0.3455
 7324SOL     OW28399   8.577   6.724   2.222 -0.4386  0.1292  0.0101
 7324SOL    HW128400   8.526   6.642   2.246 -0.4330 -0.1773 -1.0027
 7324SOL    HW228401   8.669   6.719   2.262  0.1392 -1.1457 -1.4299
 7325SOL     OW28402   6.155   7.216   3.154  0.9471  0.3613  0.3606
 7325SOL    HW128403   6.225   7.187   3.089  0.5068  0.4108 -0.1368
 7325SOL    HW228404   6.199   7.247   3.239  1.5528  0.9460 -0.1614
 7326SOL     OW28405   3.141   3.408   1.491 -0.2691  0.4212  0.3430
 7326SOL    HW128406   3.116   3.384   1.585  1.5049 -1.1712  0.4438
 7326SOL    HW228407   3.059   3.413   1.435 -1.2546  0.2815  1.7452
 7327SOL     OW28408   0.333   3.286   3.563 -0.2530 -0.2325 -0.2817
 7327SOL    HW128409   0.331   3.267   3.464 -1.0079 -0.9993 -0.1202
 7327SOL    HW228410   0.413   3.343   3.584 -0.2941  0.2501 -1.3920
 7328SOL     OW28411   3.077   2.824   2.281  0.2022 -0.1353 -0.3190
 7328SOL    HW128412   3.106   2.732   2.305  0.6516 -0.3056 -1.4735
 7328SOL    HW228413   3.127   2.890   2.337  1.2752 -0.5211 -0.7963
 7332SOL     OW28414   1.967   0.309   2.059 -0.5044  0.4152 -0.3719
 7332SOL    HW128415   1.906   0.322   2.137  0.6682 -1.0076  0.8098
 7332SOL    HW228416   1.943   0.224   2.012 -0.1699  0.4488 -0.6031
 7333SOL     OW28417   0.339   3.866   2.644  0.5604  0.5866 -0.1350
 7333SOL    HW128418   0.330   3.768   2.629 -0.2507  0.7126 -0.4723
 7333SOL    HW228419   0.287   3.892   2.725  0.8660  0.7242  0.0190
 7334SOL     OW28420   8.085   0.854   2.303 -0.6941 -0.0128 -0.6156
 7334SOL    HW128421   8.124   0.937   2.264  1.4244 -0.1062  1.1854
 7334SOL    HW228422   8.092   0.779   2.237  1.6665  0.1340 -0.5877
 7335SOL     OW28423   3.503   2.171   3.610 -0.1885  0.1416 -0.0909
 7335SOL    HW128424   3.415   2.128   3.632  0.2266  0.5525  2.5381
 7335SOL    HW228425   3.489   2.266   3.583 -0.6016 -0.0218 -0.4559
 7336SOL     OW28426   2.601   9.366   0.856  0.3675 -0.1274  0.2478
 7336SOL    HW128427   2.685   9.321   0.887  0.3695 -1.2802 -1.4254
 7336SOL    HW228428   2.612   9.397   0.762 -0.0754  2.3153  0.9562
 7337SOL     OW28429   5.568   1.636   4.135 -0.0404 -0.3384  0.3723
 7337SOL    HW128430   5.518   1.717   4.166 -0.0448  0.1546 -0.8624
 7337SOL    HW228431   5.511   1.585   4.070  0.8751  0.0118 -0.7361
 7338SOL     OW28432   9.642   7.979   3.974  0.0968 -0.4125 -0.7386
 7338SOL    HW128433   9.580   8.014   4.045  1.9817 -0.9760  1.2405
 7338SOL    HW228434   9.641   8.041   3.896 -0.9526  0.9917  0.3532
 7339SOL     OW28435   7.969   7.052   3.043  0.0371 -0.2161 -0.6265
 7339SOL    HW128436   7.903   7.031   2.972  0.1257 -1.1725 -0.4436
 7339SOL    HW228437   8.037   6.978   3.048 -0.1644 -0.3326  0.6664
 7340SOL     OW28438   2.023   3.688   3.560  0.1597 -0.1773 -0.2846
 7340SOL    HW128439   1.992   3.781   3.539  1.1239  0.8609  2.7554
 7340SOL    HW228440   1.947   3.636   3.598  0.7246  0.7592  2.2014
 7343SOL     OW28441   1.929   9.286   2.511  0.6562 -0.3847  0.4436
 7343SOL    HW128442   1.863   9.225   2.467  1.3140 -0.1469 -0.9229
 7343SOL    HW228443   1.913   9.289   2.609  0.5694 -2.7206  0.5234
 7344SOL     OW28444  10.003   9.678   0.180 -0.3518 -0.1277  0.0045
 7344SOL    HW128445   9.943   9.600   0.199 -1.8826  1.1704  0.6069
 7344SOL    HW228446   9.950   9.751   0.137  0.9766  0.7380 -0.1770
 7345SOL     OW28447   1.210   5.004   0.130  0.2879 -0.3654  0.3376
 7345SOL    HW128448   1.241   4.910   0.115 -1.2315 -0.5006 -2.3540
 7345SOL    HW228449   1.132   5.022   0.071  0.9449  2.7964  0.3772
 7348SOL     OW28450   3.475   7.488   3.309  0.8592 -0.7433 -0.0758
 7348SOL    HW128451   3.378   7.466   3.322  0.7051  0.1528  0.3174
 7348SOL    HW228452   3.531   7.409   3.334  0.3078 -0.7299  1.2234
 7351SOL     OW28453   2.876   8.526   1.498  0.1649 -0.1483 -0.0906
 7351SOL    HW128454   2.926   8.445   1.532 -1.2578 -0.5138  1.1816
 7351SOL    HW228455   2.790   8.535   1.548 -0.3160  1.3926 -1.1765
 7352SOL     OW28456   8.809   4.466   0.778 -0.0624  0.3207  0.2431
 7352SOL    HW128457   8.759   4.410   0.845 -2.0096  0.6506 -0.8967
 7352SOL    HW228458   8.817   4.559   0.813  1.3597 -0.1558  1.2264
 7353SOL     OW28459   2.547   1.154   1.697  0.2827 -0.2475 -0.1330
 7353SOL    HW128460   2.604   1.230   1.729 -0.4963  0.0814  0.5052
 7353SOL    HW228461   2.473   1.137   1.763  1.5074 -2.7670  0.6474
 7354SOL     OW28462   1.618   3.117   3.476 -0.0968 -0.7471  0.0405
 7354SOL    HW128463   1.553   3.120   3.400  1.4412  0.7301 -1.2913
 7354SOL    HW228464   1.688   3.187   3.461 -0.4660  0.4514  3.4922
 7356SOL     OW28465   3.951   0.065   4.243 -0.2409  0.0877 -0.4474
 7356SOL    HW128466   4.011  -0.010   4.214 -0.7111 -0.1743 -0.7321
 7356SOL    HW228467   3.975   0.149   4.194  0.3124  0.1403 -0.0995
 7357SOL     OW28468   2.029   9.606   0.022 -0.0362  0.4342 -0.4159
 7357SOL    HW128469   2.068   9.604  -0.070 -1.1237 -1.6051 -0.8692
 7357SOL    HW228470   2.073   9.538   0.079  0.2424  1.3082  0.4338
 7358SOL     OW28471   9.068   0.690   2.300  0.3923  0.4570 -0.1381
 7358SOL    HW128472   9.017   0.661   2.219 -0.5091  0.6971  0.3399
 7358SOL    HW228473   9.112   0.610   2.342 -0.4586  0.0904  0.0505
 7359SOL     OW28474   7.483   6.540   2.780  0.2898  0.3986 -0.0710
 7359SOL    HW128475   7.531   6.626   2.765 -1.2462  1.1316 -0.8979
 7359SOL    HW228476   7.473   6.492   2.692 -0.3306  0.1755  0.1206
 7360SOL     OW28477   1.201   8.025   0.514 -0.4546 -0.0218 -0.4897
 7360SOL    HW128478   1.277   8.073   0.557  0.8435  0.3627 -3.1565
 7360SOL    HW228479   1.116   8.049   0.562  1.0098 -0.3572  2.4219
 7361SOL     OW28480   9.254   2.754   3.018 -0.3417  0.5336  0.8314
 7361SOL    HW128481   9.310   2.809   2.956  0.8148 -0.6102  0.8317
 7361SOL    HW228482   9.176   2.716   2.967  1.0776 -1.1241 -0.1861
 7362SOL     OW28483   2.245   7.016   0.973  0.0948  0.2258 -0.1828
 7362SOL    HW128484   2.218   6.996   1.067 -0.5131  1.3554 -0.1059
 7362SOL    HW228485   2.239   6.933   0.918 -0.4389 -0.2365  0.5623
 7363SOL     OW28486   7.382   0.692   3.908  0.3179  0.5837  0.7811
 7363SOL    HW128487   7.313   0.698   3.835  2.0882  0.4420 -0.9254
 7363SOL    HW228488   7.404   0.784   3.941  0.9715  0.7931 -0.2453
 7364SOL     OW28489   9.333   9.835   0.695 -0.4259  0.0446  0.3005
 7364SOL    HW128490   9.399   9.897   0.653  1.3404 -2.7408 -1.1858
 7364SOL    HW228491   9.349   9.831   0.793 -0.3312  1.6259  0.3621
 7365SOL     OW28492   4.930   8.689   1.261 -0.0369  0.4794  0.2768
 7365SOL    HW128493   4.998   8.757   1.288 -1.1635  0.8910  2.1105
 7365SOL    HW228494   4.927   8.615   1.328 -1.0209  0.2033 -0.0570
 7366SOL     OW28495   1.724   0.759   1.479  0.3383  0.4048 -0.1120
 7366SOL    HW128496   1.708   0.787   1.574 -1.0160 -2.1983  0.4693
 7366SOL    HW228497   1.799   0.694   1.474 -0.7175 -0.8144 -0.5626
 7367SOL     OW28498   3.516   5.806   0.808  0.1869 -0.2375  0.5353
 7367SOL    HW128499   3.548   5.812   0.714  0.2890  0.1208  0.5918
 7367SOL    HW228500   3.442   5.739   0.815  2.3530 -2.6592  0.7864
 7369SOL     OW28501   3.289   7.002   0.303  0.0796  0.2019  0.2835
 7369SOL    HW128502   3.362   7.062   0.334  0.6156  0.0839 -0.7040
 7369SOL    HW228503   3.269   7.020   0.206 -1.6839  0.7141  0.7197
 7370SOL     OW28504   0.335   6.603   4.213  0.0445 -0.1990  0.4152
 7370SOL    HW128505   0.237   6.585   4.208 -0.1425  0.8826 -0.0585
 7370SOL    HW228506   0.356   6.649   4.299  0.3350 -1.5390  1.0765
 7371SOL     OW28507   3.408   4.757   1.358 -0.1941  0.9079  0.2603
 7371SOL    HW128508   3.417   4.854   1.381  1.1893  1.0602 -0.8875
 7371SOL    HW228509   3.481   4.705   1.404 -0.0369  0.6207 -0.3139
 7372SOL     OW28510   3.106   0.761   0.231 -0.3604 -0.5713 -0.5119
 7372SOL    HW128511   3.123   0.710   0.147 -2.7180 -0.0955 -1.3248
 7372SOL    HW228512   3.156   0.848   0.227  1.3484 -1.5136 -0.3865
 7373SOL     OW28513   2.238   0.827   3.714 -0.4035  0.7494 -0.1429
 7373SOL    HW128514   2.325   0.851   3.757 -0.5863 -0.3616  0.8747
 7373SOL    HW228515   2.166   0.889   3.748 -1.0765 -1.7677  3.2678
 7374SOL     OW28516   2.488   4.998   2.351 -0.3182  0.5610  0.0336
 7374SOL    HW128517   2.556   4.926   2.368 -0.7093  0.7365  2.4842
 7374SOL    HW228518   2.527   5.067   2.290 -0.0257 -1.8298 -2.5810
 7375SOL     OW28519   0.727   3.446   4.104  0.3413  0.6586  0.4932
 7375SOL    HW128520   0.731   3.352   4.138 -1.5344  1.1640  2.2151
 7375SOL    HW228521   0.730   3.510   4.182 -0.3666  1.9613 -0.5213
 7376SOL     OW28522   7.067   0.405   1.364  0.3716 -0.0682  0.5686
 7376SOL    HW128523   7.054   0.462   1.282  0.9267  0.3012  0.7326
 7376SOL    HW228524   7.104   0.316   1.337 -2.8328 -1.2971  0.0551
 7381SOL     OW28525   8.109   6.959   4.300 -0.2583 -0.2425  0.2805
 7381SOL    HW128526   8.169   6.880   4.290 -1.0091 -0.7210 -0.5648
 7381SOL    HW228527   8.027   6.946   4.243 -0.4948  1.0368  0.3125
 7382SOL     OW28528   2.047   2.847   3.793 -0.9241  0.3862  0.5999
 7382SOL    HW128529   1.991   2.925   3.762  1.2361  2.3162  1.4411
 7382SOL    HW228530   2.054   2.849   3.892  1.0983  0.5156  0.4652
 7384SOL     OW28531   8.448   7.835   3.717  0.0165 -0.2975 -0.4648
 7384SOL    HW128532   8.419   7.868   3.807  1.8037  0.9277 -0.3005
 7384SOL    HW228533   8.431   7.905   3.648  0.3421 -0.5077 -0.7632
 7385SOL     OW28534   2.540   1.370   3.568  0.4492 -0.4366 -0.4498
 7385SOL    HW128535   2.574   1.334   3.482  0.8165  0.5643 -0.7237
 7385SOL    HW228536   2.572   1.312   3.643  1.9291 -0.0700 -0.7886
 7386SOL     OW28537   8.437   0.213   2.761 -0.5889  1.2493  0.3861
 7386SOL    HW128538   8.360   0.275   2.745 -0.9564  0.3666 -1.3889
 7386SOL    HW228539   8.464   0.170   2.675  2.2855  1.9544  0.8775
 7387SOL     OW28540   6.229   7.708   2.262  0.4531  0.3120 -0.2671
 7387SOL    HW128541   6.313   7.756   2.234  2.1634 -2.0263  0.6591
 7387SOL    HW228542   6.253   7.615   2.291 -2.1310  0.5158  2.6964
 7388SOL     OW28543   0.967   4.748   1.688 -0.8833 -0.6436 -0.0886
 7388SOL    HW128544   1.044   4.804   1.718 -0.3952 -1.2016 -0.2931
 7388SOL    HW228545   0.884   4.804   1.688 -0.8110 -0.4989  1.7997
 7389SOL     OW28546   5.634   7.318   4.062  0.3203 -0.0764  0.6505
 7389SOL    HW128547   5.610   7.413   4.082 -1.3092 -0.2981 -0.1911
 7389SOL    HW228548   5.574   7.257   4.113  0.6499 -0.6395  0.3675
 7390SOL     OW28549   8.417   4.115   4.218  0.4706 -0.8834  0.6534
 7390SOL    HW128550   8.464   4.149   4.137 -1.9645 -0.0634 -0.4605
 7390SOL    HW228551   8.430   4.179   4.294  1.0567 -0.6161  0.3275
 7392SOL     OW28552   7.682   8.695   3.925  0.1302  0.2325 -0.2806
 7392SOL    HW128553   7.610   8.755   3.961 -2.1888 -3.5277  1.6301
 7392SOL    HW228554   7.756   8.689   3.991 -0.6439 -0.7126  0.5105
 7393SOL     OW28555   2.658   3.944   0.542  0.2025  0.6459  0.0661
 7393SOL    HW128556   2.745   3.906   0.575  1.1118  2.1446 -0.5245
 7393SOL    HW228557   2.583   3.908   0.597  1.6052  2.5900  3.4369
 7396SOL     OW28558   3.937   1.359   0.656  0.6234  0.2048 -0.2642
 7396SOL    HW128559   3.874   1.283   0.635 -0.4519  1.3709 -1.3491
 7396SOL    HW228560   3.960   1.407   0.572  0.8921  1.4053  0.4865
 7397SOL     OW28561   0.560   5.157   3.300 -0.4188  0.3305  0.1741
 7397SOL    HW128562   0.558   5.215   3.218 -2.1611 -2.1989 -1.6363
 7397SOL    HW228563   0.483   5.181   3.359 -0.8309  0.2263 -0.3155
 7398SOL     OW28564   2.856   7.785   3.495 -0.1632 -0.0990 -0.6255
 7398SOL    HW128565   2.876   7.870   3.545  0.9734  0.1148 -1.4064
 7398SOL    HW228566   2.858   7.708   3.558  2.4953  0.0069 -0.5028
 7399SOL     OW28567   2.339   8.760   3.071 -0.5086 -0.3041  0.3262
 7399SOL    HW128568   2.336   8.802   2.980 -0.5928  0.6380  0.7555
 7399SOL    HW228569   2.433   8.762   3.105  0.1180 -3.5461 -1.0528
 7400SOL     OW28570   1.868   3.911   3.553  0.0830  0.9262 -0.2006
 7400SOL    HW128571   1.851   4.005   3.581 -1.5389  0.6921 -0.2967
 7400SOL    HW228572   1.799   3.851   3.595  0.9835 -0.1977 -0.2786
 7401SOL     OW28573   1.153   8.943   4.375 -0.6814  0.2866  0.0885
 7401SOL    HW128574   1.139   9.033   4.417  0.9731  0.6221 -0.0630
 7401SOL    HW228575   1.074   8.920   4.318 -2.1532  0.6242  1.9280
 7402SOL     OW28576   1.391   8.739   1.134  0.5862 -0.5020 -0.0093
 7402SOL    HW128577   1.312   8.684   1.161  0.5413 -0.4220  0.0223
 7402SOL    HW228578   1.430   8.701   1.050 -1.2777  1.1684 -1.6870
 7403SOL     OW28579   8.146   5.066   4.002 -0.2780 -0.5224  0.1373
 7403SOL    HW128580   8.104   5.047   4.090 -0.1725 -0.4257  0.2099
 7403SOL    HW228581   8.120   4.996   3.935 -1.4950  0.1783 -0.1303
 7405SOL     OW28582   0.611   5.958   0.695 -0.4211  0.5355 -0.4321
 7405SOL    HW128583   0.661   6.029   0.744 -0.1820  1.2483 -1.6757
 7405SOL    HW228584   0.668   5.921   0.621  0.0094 -2.0152  1.1145
 7406SOL     OW28585   7.355   8.232   1.205 -0.2344  0.2561 -0.2090
 7406SOL    HW128586   7.375   8.160   1.139 -1.1776 -0.1936 -0.0059
 7406SOL    HW228587   7.350   8.192   1.297 -1.6480  0.4221 -0.2016
 7407SOL     OW28588   0.728   7.584   1.627  0.1182  0.1927  0.4131
 7407SOL    HW128589   0.745   7.616   1.534  0.0093 -1.8622 -0.3408
 7407SOL    HW228590   0.807   7.605   1.685  1.0391 -0.3159 -0.6460
 7408SOL     OW28591   9.509   3.254   2.760 -0.4694  0.1825 -0.9591
 7408SOL    HW128592   9.459   3.303   2.831 -0.5475 -0.5942 -0.4712
 7408SOL    HW228593   9.577   3.194   2.803 -0.3496 -0.1048 -1.5472
 7410SOL     OW28594   5.264   9.485   1.292 -0.4402 -0.1200  0.5498
 7410SOL    HW128595   5.292   9.487   1.196 -0.4539  0.1697  0.5508
 7410SOL    HW228596   5.174   9.443   1.299 -0.4960 -0.0244  0.4206
 7411SOL     OW28597   5.005   1.788   2.258 -1.2596 -0.2046  0.1501
 7411SOL    HW128598   4.984   1.851   2.333  0.6669  1.1848 -0.4359
 7411SOL    HW228599   4.931   1.791   2.191 -1.4221  1.0542  0.3763
 7412SOL     OW28600   0.902   4.478   1.686  0.4377 -0.0461  0.0482
 7412SOL    HW128601   0.934   4.571   1.666  1.7277 -0.7659 -1.2944
 7412SOL    HW228602   0.962   4.436   1.754 -0.2773  0.1538  0.8234
 7413SOL     OW28603   7.472   0.690   1.062 -0.0204 -0.4772 -0.0272
 7413SOL    HW128604   7.556   0.728   1.101  0.8626 -0.5359 -1.8546
 7413SOL    HW228605   7.412   0.765   1.033  0.4594 -0.4614 -0.9685
 7415SOL     OW28606   2.794   3.543   1.011 -0.2642  0.3438  0.9369
 7415SOL    HW128607   2.744   3.630   1.022 -0.9967 -0.0906  1.1055
 7415SOL    HW228608   2.886   3.553   1.049 -0.2823  1.1008  0.8019
 7416SOL     OW28609   9.041   4.471   1.361  0.2371 -0.0178  0.2617
 7416SOL    HW128610   9.096   4.499   1.282 -0.2769 -1.8110 -0.7580
 7416SOL    HW228611   9.102   4.443   1.435  0.7221  1.5466  0.4693
 7417SOL     OW28612   1.159   2.417   4.199 -0.3763 -0.1974  0.1967
 7417SOL    HW128613   1.078   2.451   4.151 -0.6371  0.3984  1.0435
 7417SOL    HW228614   1.217   2.367   4.135 -0.7297  0.5618 -0.7286
 7418SOL     OW28615   0.203   2.617   3.147  0.1871  0.3023  0.5085
 7418SOL    HW128616   0.296   2.619   3.110  0.1420  0.6287  0.4154
 7418SOL    HW228617   0.143   2.674   3.091  0.0502  0.5491  0.9065
 7419SOL     OW28618   2.363   3.164   0.847  0.0395  0.0938  0.6086
 7419SOL    HW128619   2.325   3.073   0.863  0.3799 -0.5935 -2.1633
 7419SOL    HW228620   2.305   3.233   0.889 -1.2488 -1.2871  1.1346
 7421SOL     OW28621   3.989   7.291   1.703  0.3408  1.1597  0.2832
 7421SOL    HW128622   4.033   7.365   1.752  2.2522  1.3008 -1.5976
 7421SOL    HW228623   4.050   7.212   1.699 -1.0692  0.0192  0.9396
 7422SOL     OW28624   3.528   0.723   3.925 -0.5777  0.1717 -0.3213
 7422SOL    HW128625   3.603   0.787   3.944 -0.7957  1.0411 -2.2135
 7422SOL    HW228626   3.563   0.645   3.874 -0.9207  0.5374 -1.1309
 7423SOL     OW28627   5.203   8.093   4.383  0.5863  0.1845  0.0179
 7423SOL    HW128628   5.278   8.036   4.350 -0.0813  0.7322 -2.5730
 7423SOL    HW228629   5.237   8.185   4.403  0.3389  0.9596 -2.8774
 7424SOL     OW28630   8.235   0.921   2.788 -0.5089 -0.3831 -0.1380
 7424SOL    HW128631   8.194   0.952   2.874  1.2461  1.3749  0.0965
 7424SOL    HW228632   8.304   0.851   2.808  1.0052  1.1425  0.0477
 7426SOL     OW28633   8.793   8.109   1.853 -0.4405 -0.4503 -0.5707
 7426SOL    HW128634   8.818   8.118   1.950 -1.1816 -1.4348 -0.2772
 7426SOL    HW228635   8.876   8.097   1.799 -0.1023 -1.3808  0.1282
 7427SOL     OW28636   6.293   9.740   3.300 -0.1788 -0.3165  0.0674
 7427SOL    HW128637   6.390   9.758   3.285 -0.4574  0.0665 -1.3427
 7427SOL    HW228638   6.257   9.684   3.224 -0.9725 -0.7813  0.7701
 7429SOL     OW28639   3.384   0.954   4.085  0.1553  0.7583  0.5996
 7429SOL    HW128640   3.460   1.009   4.119  1.3247 -1.1932  1.2021
 7429SOL    HW228641   3.417   0.864   4.059 -1.9874 -0.1629  0.9948
 7430SOL     OW28642   8.829   4.647   3.314  0.0611 -0.2058  0.8025
 7430SOL    HW128643   8.898   4.703   3.268  0.2232 -1.1718 -0.1440
 7430SOL    HW228644   8.870   4.560   3.341 -0.5257 -0.3759  1.1329
 7431SOL     OW28645   8.074   8.958   0.384 -0.1045 -0.0703  0.5907
 7431SOL    HW128646   7.980   8.953   0.416  0.8304 -0.7991  3.2920
 7431SOL    HW228647   8.131   9.003   0.453  1.7455 -0.6505 -0.5123
 7432SOL     OW28648   6.342   0.857   1.697 -0.5534  0.4170  0.5092
 7432SOL    HW128649   6.423   0.883   1.749  0.0539  0.2614 -0.3550
 7432SOL    HW228650   6.288   0.791   1.751  0.3471 -0.1611  0.7177
 7433SOL     OW28651   0.615   3.815   0.990  0.2342 -0.1785 -0.1131
 7433SOL    HW128652   0.530   3.767   0.968  0.1687 -0.4986  0.8402
 7433SOL    HW228653   0.639   3.875   0.914 -1.3955  0.7174  0.0660
 7434SOL     OW28654   5.330   1.763   2.268 -0.5417 -0.3527 -0.3976
 7434SOL    HW128655   5.339   1.830   2.342  0.6069  0.5543 -1.3400
 7434SOL    HW228656   5.234   1.736   2.259 -0.7994  0.1260  0.9041
 7435SOL     OW28657   8.929   6.852   1.949  0.1766 -0.4397  0.4547
 7435SOL    HW128658   8.969   6.918   1.885  2.2370 -0.9125  1.2145
 7435SOL    HW228659   8.892   6.901   2.028  0.2944 -0.0664  0.2817
 7436SOL     OW28660   9.661   6.017   0.740  0.1976  0.2952 -0.0160
 7436SOL    HW128661   9.714   6.071   0.805 -0.4846  0.1879  0.6346
 7436SOL    HW228662   9.644   5.926   0.778  0.2312  0.0534 -0.5651
 7437SOL     OW28663   8.623   9.771   4.328 -0.0565 -0.0653  0.3303
 7437SOL    HW128664   8.579   9.753   4.240  0.7998  1.0070 -0.3457
 7437SOL    HW228665   8.558   9.755   4.402 -1.2411  0.4186 -0.5783
 7438SOL     OW28666   8.414   6.865   4.075  0.5555 -0.3459 -0.4223
 7438SOL    HW128667   8.466   6.884   3.992 -1.1981  0.9956 -1.2359
 7438SOL    HW228668   8.321   6.839   4.050  0.0974 -0.2187  1.1230
 7439SOL     OW28669   7.305   9.071   1.370  0.1034 -0.1312  0.6993
 7439SOL    HW128670   7.222   9.127   1.371  0.0498 -0.2234  1.2384
 7439SOL    HW228671   7.287   8.984   1.415  0.7541  0.2085  1.6224
 7440SOL     OW28672   8.015   2.429   0.551  0.0590 -0.5322  0.2222
 7440SOL    HW128673   8.017   2.346   0.494  1.1853 -0.4573  0.1417
 7440SOL    HW228674   8.032   2.404   0.646 -4.2023 -0.9680  0.9596
 7441SOL     OW28675   2.995   8.288   1.594  0.0155  0.2375  0.7817
 7441SOL    HW128676   2.896   8.276   1.605 -0.3424 -0.3282 -2.4275
 7441SOL    HW228677   3.039   8.199   1.586  0.3669  0.5383 -0.7637
 7442SOL     OW28678   2.108   6.298   0.318 -0.1942 -0.4421 -0.0948
 7442SOL    HW128679   2.170   6.228   0.356  2.0893  1.4107 -0.2782
 7442SOL    HW228680   2.073   6.355   0.392  0.2412  0.0172 -0.2414
 7444SOL     OW28681   0.135   8.892   2.598  0.3036 -0.6868 -0.1879
 7444SOL    HW128682   0.079   8.956   2.546 -0.5743 -0.0649  1.5080
 7444SOL    HW228683   0.198   8.846   2.536  1.4746  2.3417 -1.3573
 7445SOL     OW28684   2.490   6.336   3.640  0.2968  0.4083 -0.1919
 7445SOL    HW128685   2.489   6.266   3.712  0.0797  0.1847 -0.4113
 7445SOL    HW228686   2.577   6.330   3.590  0.5044  0.6532  0.1376
 7446SOL     OW28687   0.242   8.696   3.327  0.8938  0.2489  0.4754
 7446SOL    HW128688   0.144   8.704   3.348  0.3619 -0.2652 -1.6961
 7446SOL    HW228689   0.292   8.673   3.411 -0.9473 -0.2626  1.4660
 7447SOL     OW28690   0.008   3.106   0.029 -0.1408  0.0638 -0.3185
 7447SOL    HW128691  -0.004   3.050  -0.053 -1.0948 -0.2903  0.0515
 7447SOL    HW228692  -0.076   3.103   0.084  0.6586 -0.0907  0.9095
 7448SOL     OW28693   0.287   2.051   0.969 -0.7740 -0.4160 -0.2796
 7448SOL    HW128694   0.352   2.004   0.910  0.1688  1.8427 -1.1292
 7448SOL    HW228695   0.272   1.998   1.053  1.5555 -1.3429 -0.4213
 7449SOL     OW28696   0.893   5.904   1.903  0.3619 -0.1977 -0.3297
 7449SOL    HW128697   0.885   5.845   1.983 -1.3702 -0.9992 -1.0796
 7449SOL    HW228698   0.901   5.999   1.932  1.2591 -0.6105  0.8230
 7450SOL     OW28699   3.468   3.644   2.306  0.4827 -0.4618  0.6073
 7450SOL    HW128700   3.523   3.694   2.373  0.6836  1.5218 -0.9643
 7450SOL    HW228701   3.479   3.687   2.216 -2.3174 -1.0500 -0.0670
 7451SOL     OW28702   9.420   3.729   2.616  0.3853  0.0344  0.2775
 7451SOL    HW128703   9.483   3.739   2.540  1.5698 -1.7184  0.9958
 7451SOL    HW228704   9.466   3.753   2.701 -0.4858  0.5658  0.6061
 7452SOL     OW28705   4.600   9.062   0.481  0.1966  0.0863 -0.1694
 7452SOL    HW128706   4.521   9.116   0.453 -0.6158 -0.4310  1.0680
 7452SOL    HW228707   4.569   8.974   0.517  1.4314 -0.6899 -0.9805
 7453SOL     OW28708   5.083   7.773   2.025 -0.1146 -0.3625  0.4546
 7453SOL    HW128709   5.030   7.691   2.007 -1.3730  0.1529  1.7019
 7453SOL    HW228710   5.179   7.756   2.005 -0.3890 -2.0741  0.5305
 7454SOL     OW28711   5.168   0.161   2.082 -0.4810 -0.6282  0.2077
 7454SOL    HW128712   5.112   0.079   2.070 -0.7333 -0.4075 -0.1625
 7454SOL    HW228713   5.173   0.186   2.178 -2.1197  0.1035  0.1226
 7455SOL     OW28714   2.490   0.083   0.333 -0.2318 -0.0465  0.2145
 7455SOL    HW128715   2.480   0.150   0.259  0.3894  1.4952  1.5008
 7455SOL    HW228716   2.431   0.109   0.409  1.5349  0.2197  1.5297
 7456SOL     OW28717   4.770   7.794   2.563  0.1267 -0.4314 -0.1912
 7456SOL    HW128718   4.736   7.882   2.528  1.8377  1.3935  2.5389
 7456SOL    HW228719   4.706   7.759   2.631  0.6497 -0.0982  0.4700
 7457SOL     OW28720   9.287   0.841   2.350  0.1720 -0.0679 -0.1010
 7457SOL    HW128721   9.264   0.917   2.410 -0.0454 -0.4984  0.3643
 7457SOL    HW228722   9.204   0.789   2.329  0.2410  0.1047 -0.8055
 7458SOL     OW28723   6.635   6.990   2.293 -0.3560  0.6410  0.3590
 7458SOL    HW128724   6.558   6.942   2.249 -0.6133  0.3192  1.1530
 7458SOL    HW228725   6.651   7.077   2.247  1.3859 -1.0787 -2.3900
 7459SOL     OW28726   4.601   4.783   1.478  0.3852  0.4508  0.1185
 7459SOL    HW128727   4.675   4.738   1.529 -0.5434 -0.6261  0.5445
 7459SOL    HW228728   4.570   4.864   1.528 -1.0582 -1.0431  1.6953
 7460SOL     OW28729   0.495   0.593   0.419 -0.0898 -0.0182  0.0319
 7460SOL    HW128730   0.413   0.615   0.365 -0.7798 -0.2450  0.9841
 7460SOL    HW228731   0.499   0.494   0.434 -0.5894  0.1769  1.4902
 7461SOL     OW28732   0.295   5.878   0.135 -0.0473 -0.2048  0.3331
 7461SOL    HW128733   0.202   5.877   0.171 -1.1436 -1.7601 -2.3514
 7461SOL    HW228734   0.310   5.963   0.084 -0.4107 -0.4791 -0.2327
 7464SOL     OW28735   2.176   0.179   2.518  0.0462 -0.3545 -0.5022
 7464SOL    HW128736   2.114   0.178   2.440 -0.6358 -0.9306  0.0345
 7464SOL    HW228737   2.134   0.231   2.593 -0.2117 -1.5432  0.1887
 7465SOL     OW28738   5.131   8.425   3.235  0.1298  0.5210  0.3687
 7465SOL    HW128739   5.076   8.363   3.179  0.8116  0.5227 -0.3099
 7465SOL    HW228740   5.224   8.390   3.243  0.1426  0.7147  1.1957
 7467SOL     OW28741   0.214   2.505   0.103  0.3402 -0.4051  0.5010
 7467SOL    HW128742   0.266   2.438   0.050 -0.3084 -0.1402 -0.4746
 7467SOL    HW228743   0.119   2.476   0.111  0.5295 -0.6553  1.8943
 7468SOL     OW28744   4.977   2.262   2.711  0.1147  0.1806 -0.2394
 7468SOL    HW128745   5.001   2.229   2.802  1.5167 -1.9672 -1.3419
 7468SOL    HW228746   5.055   2.250   2.649 -0.7734  1.6958 -1.7014
 7469SOL     OW28747   2.571   9.111   1.757 -0.3789  0.3781  0.4569
 7469SOL    HW128748   2.631   9.187   1.778  0.6204 -0.2334 -0.1619
 7469SOL    HW228749   2.622   9.025   1.764 -0.2194  0.0908 -3.5802
 7470SOL     OW28750   4.696   9.454   3.807  0.3004  0.4866  0.3651
 7470SOL    HW128751   4.750   9.538   3.802 -1.1115  1.3192 -2.3063
 7470SOL    HW228752   4.599   9.477   3.794 -0.1385 -1.5150  0.0191
 7471SOL     OW28753   5.296   1.411   1.342 -0.0393  0.2235 -0.6736
 7471SOL    HW128754   5.232   1.353   1.291 -2.3542  0.9761  1.2809
 7471SOL    HW228755   5.245   1.469   1.405  2.7186 -0.4291  2.2806
 7472SOL     OW28756   3.098   9.685   0.286  0.4783 -0.3149  0.4826
 7472SOL    HW128757   3.127   9.751   0.355 -2.5158 -0.2813  1.7928
 7472SOL    HW228758   3.081   9.731   0.200  1.4538  0.1041  0.5100
 7474SOL     OW28759   3.102   5.435   2.618  0.3741 -0.4130  0.2372
 7474SOL    HW128760   3.027   5.493   2.648  1.4008  0.9467  0.2055
 7474SOL    HW228761   3.176   5.491   2.580  1.4643 -1.7118  0.3661
 7475SOL     OW28762   0.644   7.618   4.243 -0.1297 -0.3439  0.2859
 7475SOL    HW128763   0.663   7.550   4.313 -0.7709  0.9134  1.7247
 7475SOL    HW228764   0.727   7.637   4.191 -0.1066 -2.6838 -0.5649
 7477SOL     OW28765   3.980   0.706   3.787  0.1367  0.3704 -0.5306
 7477SOL    HW128766   3.996   0.607   3.787  0.8051  0.4477  1.2552
 7477SOL    HW228767   4.064   0.754   3.762  0.5354  0.5410  1.0556
 7478SOL     OW28768   3.051   9.865   1.397  0.0017  0.4372  0.2461
 7478SOL    HW128769   3.145   9.896   1.384  0.0341  0.3516  0.2745
 7478SOL    HW228770   3.051   9.768   1.421 -0.2225 -0.2349 -2.3172
 7479SOL     OW28771   1.787   4.724   0.542  0.0391 -0.3234  0.4375
 7479SOL    HW128772   1.884   4.704   0.534 -0.0038 -0.3719  0.0455
 7479SOL    HW228773   1.738   4.685   0.464 -0.2483 -0.0042  0.4574
 7480SOL     OW28774   0.903   4.416   1.184  0.2942  0.5574  0.1721
 7480SOL    HW128775   0.995   4.449   1.206 -0.6171  2.2535  1.5772
 7480SOL    HW228776   0.849   4.410   1.268 -1.0458  0.0917 -0.7103
 7481SOL     OW28777   7.607   1.152   3.611  0.2254  0.6714  0.2348
 7481SOL    HW128778   7.685   1.185   3.558  1.2376  0.9543  1.8830
 7481SOL    HW228779   7.639   1.094   3.686 -1.0737  1.4514  1.4252
 7482SOL     OW28780   4.940   3.355   2.411  0.0816 -0.1789 -0.4372
 7482SOL    HW128781   4.850   3.398   2.405 -0.3277 -0.8017  1.1432
 7482SOL    HW228782   4.942   3.292   2.488  2.9829  2.4853  1.7991
 7483SOL     OW28783   3.098   4.981   2.342 -0.0764  0.3530 -0.0209
 7483SOL    HW128784   3.013   4.962   2.293  0.7905 -0.4898 -1.2147
 7483SOL    HW228785   3.131   5.072   2.318 -0.5578  0.6180  0.3225
 7484SOL     OW28786   8.654   1.587   0.658  0.3269 -0.5522  0.3271
 7484SOL    HW128787   8.613   1.521   0.594  0.6778  0.4222 -0.9347
 7484SOL    HW228788   8.741   1.551   0.691  1.2352 -0.1281 -1.4949
 7485SOL     OW28789   3.959   1.517   1.560  0.2833 -0.2752  0.0488
 7485SOL    HW128790   3.921   1.428   1.534 -0.9567  0.2936 -0.0999
 7485SOL    HW228791   3.923   1.588   1.500  2.4619  0.1234 -0.8123
 7486SOL     OW28792   2.385   9.254   2.631  0.3196  0.1349  0.0911
 7486SOL    HW128793   2.374   9.277   2.534 -0.9880 -1.3936 -0.1447
 7486SOL    HW228794   2.321   9.182   2.655  0.2179  0.9334  2.2624
 7487SOL     OW28795   0.025   2.219   0.677  0.1000 -0.6552  0.0988
 7487SOL    HW128796   0.045   2.144   0.614  1.6457 -0.9251  0.8910
 7487SOL    HW228797   0.095   2.289   0.668 -0.0895 -0.3542  0.9806
 7488SOL     OW28798   8.880   1.401   2.553  0.5241  0.4416 -0.3982
 7488SOL    HW128799   8.881   1.499   2.532 -1.0686  0.8432  1.2909
 7488SOL    HW228800   8.799   1.359   2.512  0.7559  0.0052 -0.4069
 7489SOL     OW28801   5.680   1.161   3.020  0.5760 -0.4434 -0.0141
 7489SOL    HW128802   5.692   1.165   3.119 -0.2056  0.4991  0.0600
 7489SOL    HW228803   5.706   1.071   2.986  0.4484 -0.9110  1.1080
 7490SOL     OW28804   0.074   1.718   3.807  0.2491  0.6222  0.7116
 7490SOL    HW128805   0.155   1.775   3.796  0.3869  0.5711  1.3970
 7490SOL    HW228806   0.004   1.769   3.858 -0.1510  0.6693  0.1155
 7492SOL     OW28807   5.196   0.673   2.952 -0.0022  0.2079 -0.7970
 7492SOL    HW128808   5.136   0.599   2.924  1.0112  0.1712 -2.9802
 7492SOL    HW228809   5.262   0.640   3.019  0.2891 -0.7994 -1.5769
 7494SOL     OW28810   3.145   9.640   2.860  0.2781 -0.0767 -0.1536
 7494SOL    HW128811   3.224   9.702   2.862 -0.7521  1.2358  0.0811
 7494SOL    HW228812   3.099   9.648   2.771  2.0130 -2.9038 -1.3768
 7495SOL     OW28813   3.558   8.186   2.272  0.3697 -0.2867  0.7138
 7495SOL    HW128814   3.618   8.133   2.212  1.8695  0.9990  1.0387
 7495SOL    HW228815   3.505   8.124   2.330  0.6450 -1.4666 -0.2724
 7496SOL     OW28816   3.049   7.111   2.732  0.0626  0.3078  0.1075
 7496SOL    HW128817   3.111   7.033   2.747 -0.6145 -0.2372  0.1279
 7496SOL    HW228818   3.062   7.147   2.640  0.2425  0.0475  0.0302
 7497SOL     OW28819   2.044   7.613   0.208  0.3667 -0.1997 -0.3603
 7497SOL    HW128820   2.113   7.613   0.281  0.1807  0.1940 -0.1851
 7497SOL    HW228821   1.954   7.631   0.247  0.0082 -1.7820 -0.4471
 7498SOL     OW28822   3.634   4.222   0.500  0.4766 -0.4666 -0.4361
 7498SOL    HW128823   3.573   4.274   0.440  0.6943  0.9927  0.5899
 7498SOL    HW228824   3.579   4.170   0.565  0.2717 -1.1764 -1.1627
 7499SOL     OW28825   7.628   3.060   0.132 -0.2114  0.6283 -0.0858
 7499SOL    HW128826   7.678   3.146   0.128  0.0081  0.5620  1.0523
 7499SOL    HW228827   7.663   3.005   0.207 -0.1263 -0.6012 -1.0022
 7500SOL     OW28828   0.474   0.605   1.131 -0.1950  0.4763  0.1276
 7500SOL    HW128829   0.459   0.697   1.167 -0.7082  0.5204 -0.1894
 7500SOL    HW228830   0.472   0.609   1.031 -0.2821  0.1051  0.1172
 7502SOL     OW28831   4.190   9.090   3.457 -0.4387 -0.1555  0.3075
 7502SOL    HW128832   4.222   9.152   3.529  0.1313  0.4874 -0.4775
 7502SOL    HW228833   4.104   9.124   3.419 -0.2842  0.0072  0.0912
 7503SOL     OW28834   3.753   7.572   2.452 -0.1659 -0.4481  0.4080
 7503SOL    HW128835   3.667   7.540   2.412 -0.3813  0.0744  0.4597
 7503SOL    HW228836   3.825   7.570   2.383 -0.1435 -1.1901  0.4459
 7504SOL     OW28837   7.405   2.690   2.753 -0.5151  0.4301  0.2287
 7504SOL    HW128838   7.464   2.688   2.672 -1.4446  0.8408 -0.4610
 7504SOL    HW228839   7.432   2.767   2.812 -0.1961  0.4633  0.0406
 7505SOL     OW28840   2.647   1.944   0.482 -0.3562  0.2878  0.4083
 7505SOL    HW128841   2.669   1.952   0.579  0.8004  0.8020  0.1190
 7505SOL    HW228842   2.720   1.987   0.428  0.4579 -2.5364 -0.8068
 7506SOL     OW28843   3.065   9.159   0.425 -0.9334  0.5480 -0.3970
 7506SOL    HW128844   3.071   9.252   0.389 -3.2839  0.9246  0.1164
 7506SOL    HW228845   3.095   9.094   0.355 -0.6777  1.6027 -1.2780
 7507SOL     OW28846   0.147   0.481   1.789 -0.3296  0.4894  0.3088
 7507SOL    HW128847   0.183   0.450   1.877 -1.5280  0.3124  0.7407
 7507SOL    HW228848   0.188   0.570   1.767  1.7042 -0.4969 -0.0610
 7508SOL     OW28849   8.891   5.195   1.020  0.0768  0.4846  0.2401
 7508SOL    HW128850   8.969   5.135   1.039 -0.1186  0.4641  0.9996
 7508SOL    HW228851   8.823   5.144   0.966  0.2452  0.2589  0.2375
 7510SOL     OW28852   3.642   3.849   0.717  0.3421  0.2328 -0.4674
 7510SOL    HW128853   3.680   3.807   0.634  0.5954  0.3472 -0.4076
 7510SOL    HW228854   3.706   3.917   0.753  0.6043 -0.4125  0.2957
 7513SOL     OW28855   6.774   8.182   2.662  0.3726  0.6998 -0.1414
 7513SOL    HW128856   6.798   8.220   2.752  2.3460  1.5804 -1.0204
 7513SOL    HW228857   6.827   8.098   2.647 -0.1090  0.4427 -0.3905
 7514SOL     OW28858   3.055   2.733   0.739 -0.2792  0.3725  0.2063
 7514SOL    HW128859   3.141   2.762   0.781 -1.0494  1.0518  1.3356
 7514SOL    HW228860   2.986   2.719   0.810 -1.5411  1.3191 -0.8001
 7515SOL     OW28861   7.442   3.100   0.961  0.4806 -0.2270  0.4971
 7515SOL    HW128862   7.521   3.121   1.020  0.5845  0.4670  0.1186
 7515SOL    HW228863   7.446   3.158   0.879 -0.3136 -0.3429  0.3785
 7516SOL     OW28864   8.090   2.894   0.278  0.4122 -0.4395  0.0995
 7516SOL    HW128865   8.166   2.949   0.312  0.0980  0.1867 -0.2124
 7516SOL    HW228866   8.112   2.797   0.288  0.9898 -0.2589  0.5926
 7517SOL     OW28867   1.038   5.512   4.382 -0.6317  0.5969 -0.1710
 7517SOL    HW128868   0.945   5.549   4.380 -0.0924  2.0421  0.6712
 7517SOL    HW228869   1.096   5.573   4.436  0.8537 -0.1661 -0.9038
 7518SOL     OW28870   0.681   1.564   4.039  0.1173  0.1203  0.0850
 7518SOL    HW128871   0.697   1.592   3.944 -1.6648 -0.8581 -0.5395
 7518SOL    HW228872   0.755   1.505   4.070  0.1142 -0.5279 -1.1117
 7519SOL     OW28873   3.038   2.960   3.988 -0.0632 -0.6883 -0.5824
 7519SOL    HW128874   3.034   2.881   3.927  0.6342 -0.4297 -0.9624
 7519SOL    HW228875   2.945   2.991   4.008 -0.3080 -0.9240 -1.3250
 7520SOL     OW28876   8.665   0.909   1.097 -0.0116 -0.2635 -0.1888
 7520SOL    HW128877   8.605   0.887   1.173 -0.1535  0.8559  0.0356
 7520SOL    HW228878   8.693   0.825   1.051 -1.1761 -0.8401  0.1331
 7522SOL     OW28879   1.001   9.775   4.244  0.3965 -0.5845 -0.0547
 7522SOL    HW128880   0.973   9.687   4.207 -1.0448  0.4821 -1.5451
 7522SOL    HW228881   0.926   9.815   4.296 -0.1321  1.2482 -2.1514
 7523SOL     OW28882   4.993   1.290   3.171 -0.7373  0.3250  0.0329
 7523SOL    HW128883   4.925   1.361   3.191 -0.9962  0.1994 -0.3842
 7523SOL    HW228884   5.039   1.311   3.085  0.4961  0.9576  0.8390
 7524SOL     OW28885   1.012   5.935   3.227 -0.4680  0.2200 -0.0330
 7524SOL    HW128886   1.103   5.894   3.222 -0.0889  0.8152  1.4775
 7524SOL    HW228887   0.944   5.864   3.244 -0.2674 -0.2064 -0.9909
 7526SOL     OW28888   2.907   9.060   3.989  0.2589 -0.2306  0.4646
 7526SOL    HW128889   2.961   9.073   3.905  0.3869 -1.0646  0.4208
 7526SOL    HW228890   2.826   9.119   3.985 -0.3990 -1.1992 -0.8124
 7527SOL     OW28891   0.784   3.500   2.049  0.0034  0.1854  0.4858
 7527SOL    HW128892   0.799   3.444   1.967 -1.2909  0.9933 -0.3177
 7527SOL    HW228893   0.759   3.593   2.022  1.4866  0.9998  1.8131
 7528SOL     OW28894   9.228   1.385   0.990 -0.2149 -0.0678 -0.1605
 7528SOL    HW128895   9.136   1.408   0.959  0.3892 -0.2522 -2.1325
 7528SOL    HW228896   9.254   1.295   0.956  0.2803 -0.5122  1.3328
 7529SOL     OW28897   2.203   3.100   0.560 -0.2898 -0.0528 -0.1413
 7529SOL    HW128898   2.205   3.061   0.468 -0.3725 -1.1127  0.3029
 7529SOL    HW228899   2.251   3.188   0.560  0.2917 -0.3669 -1.0374
 7530SOL     OW28900   7.552   2.483   0.447  0.3528  0.2582  0.4241
 7530SOL    HW128901   7.625   2.415   0.444 -0.4881 -0.6095 -1.0767
 7530SOL    HW228902   7.518   2.500   0.354  0.2762  2.4390  0.8218
 7531SOL     OW28903   5.011   7.955   2.419 -0.1208  0.0700 -0.1417
 7531SOL    HW128904   5.031   8.018   2.495 -1.5233 -0.8957  1.0665
 7531SOL    HW228905   5.075   7.878   2.423 -0.0696  0.1160 -0.0465
 7532SOL     OW28906   1.846   6.742   2.049  0.0079 -0.5836 -0.4935
 7532SOL    HW128907   1.860   6.790   1.963  4.0256 -1.3542 -0.3354
 7532SOL    HW228908   1.814   6.649   2.031 -1.9506  0.1532 -0.9916
 7533SOL     OW28909   9.096   2.606   1.902  0.1457  0.2298 -0.4549
 7533SOL    HW128910   9.044   2.539   1.849  0.6970  1.1899 -2.2575
 7533SOL    HW228911   9.181   2.565   1.933 -0.1359 -0.3159 -0.4007
 7534SOL     OW28912   9.033   4.050   3.930 -0.2229  0.3040 -0.2200
 7534SOL    HW128913   8.979   3.992   3.869 -1.1911 -0.2680  1.1828
 7534SOL    HW228914   9.087   3.993   3.992  1.7845  0.8624 -1.3808
 7535SOL     OW28915   3.610   2.692   4.053  0.4964 -0.1119  0.0580
 7535SOL    HW128916   3.513   2.697   4.026  0.5147 -0.9623 -0.1856
 7535SOL    HW228917   3.628   2.603   4.094  0.9998  0.3425  0.8331
 7537SOL     OW28918   9.541   3.814   3.279  0.1899 -0.6266 -0.2166
 7537SOL    HW128919   9.526   3.715   3.279  0.4099 -0.6623 -1.0824
 7537SOL    HW228920   9.517   3.851   3.368 -0.2115 -1.4131  0.0066
 7538SOL     OW28921   8.160   3.199   0.006 -0.8686  0.1247  0.4505
 7538SOL    HW128922   8.210   3.114   0.026 -1.5900 -0.3032  0.4483
 7538SOL    HW228923   8.195   3.238  -0.079 -0.4072 -0.0752  0.5439
 7539SOL     OW28924   1.243   6.500   3.624 -0.2293 -0.7913  0.2495
 7539SOL    HW128925   1.164   6.520   3.681 -1.7240  2.1039 -2.6612
 7539SOL    HW228926   1.219   6.434   3.553  0.1938 -0.5485 -0.1280
 7540SOL     OW28927   4.434   2.949   2.662 -0.3817  0.6123  0.0925
 7540SOL    HW128928   4.432   2.858   2.702  3.6382  1.7670  3.3010
 7540SOL    HW228929   4.457   2.942   2.565  1.5990 -1.7612  0.6737
 7541SOL     OW28930   1.920   5.957   2.336  0.0499 -0.3530 -0.5361
 7541SOL    HW128931   1.932   5.955   2.435 -0.9212  1.2607 -0.3806
 7541SOL    HW228932   1.997   5.910   2.292  1.9892  1.4665  0.8359
 7542SOL     OW28933   8.808   4.289   1.468  0.1484  0.4721  0.1307
 7542SOL    HW128934   8.904   4.310   1.451 -0.2343  1.4256 -0.9296
 7542SOL    HW228935   8.751   4.367   1.442 -1.2558 -1.5543 -3.2865
 7543SOL     OW28936   2.298   1.429   3.455 -0.1449  0.1897  0.3835
 7543SOL    HW128937   2.380   1.409   3.508  0.6666  2.8809  0.2188
 7543SOL    HW228938   2.224   1.455   3.516 -0.1746  0.0749  0.3959
 7544SOL     OW28939   1.001   9.143   0.317 -0.0904 -1.0381 -0.1753
 7544SOL    HW128940   1.025   9.053   0.281  0.1479 -1.1723  0.3148
 7544SOL    HW228941   0.902   9.148   0.330  0.0076 -1.5932  0.7804
 7545SOL     OW28942   3.016   5.679   3.975 -0.1474 -0.3755 -0.3221
 7545SOL    HW128943   2.959   5.732   3.912  0.0540 -0.4140 -0.5374
 7545SOL    HW228944   2.957   5.626   4.036 -0.3509  0.9812  0.6593
 7546SOL     OW28945   0.794   5.700   0.873  0.0968  0.1233 -0.0452
 7546SOL    HW128946   0.728   5.708   0.799 -0.1306 -0.7416  0.0574
 7546SOL    HW228947   0.826   5.605   0.879  0.0190  0.1631  1.0419
 7547SOL     OW28948   1.310   9.491   0.734  0.3191  0.4413  0.0053
 7547SOL    HW128949   1.233   9.429   0.716  1.1593 -0.2530 -1.3475
 7547SOL    HW228950   1.285   9.554   0.807 -0.9779 -0.7597  0.6494
 7548SOL     OW28951   9.539   5.359   1.250  0.0819 -0.0050  0.8581
 7548SOL    HW128952   9.591   5.329   1.171  0.2157 -0.3628  1.0799
 7548SOL    HW228953   9.489   5.281   1.289 -3.9333  1.1152 -1.8208
 7549SOL     OW28954   0.805   9.581   1.173 -0.0979  0.0491  0.2374
 7549SOL    HW128955   0.831   9.675   1.152 -2.2930  0.4543 -0.7940
 7549SOL    HW228956   0.837   9.557   1.265 -2.0631  2.8153  1.7182
 7550SOL     OW28957   1.494   0.309   2.843 -0.1817  0.2082 -0.2239
 7550SOL    HW128958   1.417   0.367   2.867 -1.9686 -2.2813  0.2316
 7550SOL    HW228959   1.558   0.305   2.919 -0.6627  0.5902  0.2001
 7552SOL     OW28960   1.929   6.240   3.319 -0.1136  0.2990 -0.1594
 7552SOL    HW128961   1.982   6.272   3.241  1.4594  0.1160  0.8099
 7552SOL    HW228962   1.867   6.167   3.290 -0.8143  1.4120 -1.5680
 7553SOL     OW28963   8.675   8.274   4.394  0.3237 -0.0738 -0.2006
 7553SOL    HW128964   8.746   8.223   4.347  0.5511  1.1137 -1.1816
 7553SOL    HW228965   8.712   8.313   4.479  0.1152 -1.6047  0.6040
 7554SOL     OW28966   1.537   4.297   3.706  0.1186  0.1140  0.4300
 7554SOL    HW128967   1.452   4.273   3.660  0.9873 -1.1311 -0.5450
 7554SOL    HW228968   1.522   4.295   3.805 -0.7261 -1.1229  0.2911
 7557SOL     OW28969   1.588   4.045   1.652  0.0067  0.4320  0.1928
 7557SOL    HW128970   1.516   4.065   1.586  1.5754 -0.2779 -1.7699
 7557SOL    HW228971   1.659   4.115   1.647 -0.4921  1.1037  2.0799
 7559SOL     OW28972   8.860   3.090   2.298  0.3280  0.6811 -0.4678
 7559SOL    HW128973   8.927   3.079   2.372 -2.2824  0.0236  1.8683
 7559SOL    HW228974   8.786   3.024   2.310 -0.9858  1.6990 -2.7389
 7560SOL     OW28975   2.360   7.878   0.490 -0.1570  0.1002 -0.1928
 7560SOL    HW128976   2.413   7.797   0.465  0.3067  0.0087  1.0694
 7560SOL    HW228977   2.389   7.911   0.579 -0.9744  1.1297 -0.2974
 7561SOL     OW28978   1.289   0.953   4.046 -0.5591 -0.2929 -0.5169
 7561SOL    HW128979   1.236   0.967   3.962 -1.8542  0.9312  0.4787
 7561SOL    HW228980   1.228   0.960   4.125  1.0265  0.7219  0.6411
 7562SOL     OW28981   9.014   7.814   0.471 -0.0941  0.0187  0.1933
 7562SOL    HW128982   9.061   7.828   0.558 -0.5637  2.0039  0.1639
 7562SOL    HW228983   8.972   7.900   0.442 -0.1600 -0.6775 -1.8675
 7563SOL     OW28984   4.006   7.023   1.260  0.4403  0.2058 -0.2968
 7563SOL    HW128985   3.964   6.948   1.210 -0.6315  1.0770 -0.7218
 7563SOL    HW228986   4.028   7.097   1.197  1.3158  0.3382  0.1506
 7564SOL     OW28987   7.810   6.771   3.412  0.5375  0.1351  0.2308
 7564SOL    HW128988   7.776   6.843   3.473  1.5479 -0.8931  2.0461
 7564SOL    HW228989   7.799   6.800   3.317  0.1460  2.3154  0.9177
 7565SOL     OW28990   3.849   3.999   0.827  0.0266 -0.1482  0.1800
 7565SOL    HW128991   3.872   4.096   0.827 -0.3223 -0.0603  0.6751
 7565SOL    HW228992   3.906   3.951   0.893 -1.5166  0.1531  1.7682
 7567SOL     OW28993   8.682   2.453   2.478 -0.4525 -0.1473 -0.0107
 7567SOL    HW128994   8.614   2.525   2.487  0.8608  1.2614 -1.0946
 7567SOL    HW228995   8.774   2.493   2.481  0.3334 -1.9627  1.0251
 7568SOL     OW28996   7.354   7.438   1.504  0.0448 -0.5254 -0.5529
 7568SOL    HW128997   7.269   7.476   1.466  0.8706 -0.1154 -2.0483
 7568SOL    HW228998   7.384   7.493   1.581 -1.4281 -1.0972  0.4529
 7569SOL     OW28999   8.307   5.685   2.078 -0.3244 -0.0028  0.5296
 7569SOL    HW129000   8.393   5.700   2.127  0.4509 -0.9691 -0.5108
 7569SOL    HW229001   8.325   5.635   1.993 -1.9259 -0.2788  0.3327
 7570SOL     OW29002   9.967   4.602   2.134  0.0640 -0.0294  0.0516
 7570SOL    HW129003   9.898   4.529   2.137  0.9613 -0.9785 -1.4823
 7570SOL    HW229004  10.056   4.562   2.110  0.9970  1.2962  1.2327
 7571SOL     OW29005   8.710   6.030   2.677 -0.6988 -0.1914 -0.3292
 7571SOL    HW129006   8.736   6.041   2.773 -1.0899  3.4420 -0.5662
 7571SOL    HW229007   8.622   5.982   2.672  0.2167 -2.0780  0.9950
 7572SOL     OW29008   6.785   0.099   3.135  0.0539 -0.0546  0.5015
 7572SOL    HW129009   6.708   0.160   3.116 -0.0103  0.3239  1.8852
 7572SOL    HW229010   6.766   0.047   3.218  1.4080  0.2688  1.0307
 7573SOL     OW29011   4.890   9.673   3.788 -0.2073 -0.0572 -0.2352
 7573SOL    HW129012   4.929   9.764   3.805 -0.8851  0.4604 -1.3162
 7573SOL    HW229013   4.960   9.612   3.754  0.0014  0.4074 -0.6453
 7574SOL     OW29014   3.227   0.112   3.617 -0.7515 -0.1220 -0.2367
 7574SOL    HW129015   3.174   0.038   3.575 -0.3487 -1.1370  1.0229
 7574SOL    HW229016   3.277   0.076   3.696 -0.4407  1.4742  0.2975
 7575SOL     OW29017   7.070   0.896   0.813  0.4708 -0.2362 -0.8371
 7575SOL    HW129018   7.016   0.813   0.807 -0.0822  0.1337 -0.9921
 7575SOL    HW229019   7.099   0.925   0.722 -1.6220  1.2303 -1.0763
 7576SOL     OW29020   0.300   5.232   0.221  0.8619 -0.1558 -0.1577
 7576SOL    HW129021   0.258   5.269   0.304  1.0427  1.4076 -0.7602
 7576SOL    HW229022   0.375   5.170   0.246  0.6523 -0.0046  0.8472
 7577SOL     OW29023   2.689   2.383   2.567 -0.3165 -0.2818  0.2027
 7577SOL    HW129024   2.600   2.412   2.603  0.1576  2.1831 -0.4801
 7577SOL    HW229025   2.759   2.450   2.594  1.0480 -1.3827 -0.5479
 7579SOL     OW29026   7.165   5.412   4.143 -0.4933  0.4465  0.8157
 7579SOL    HW129027   7.149   5.327   4.192  0.4272  0.1068  0.5165
 7579SOL    HW229028   7.216   5.394   4.059 -1.0963  1.1697  0.2866
 7580SOL     OW29029   6.875   0.780   2.191 -0.1839  0.9110 -0.4139
 7580SOL    HW129030   6.851   0.691   2.230  1.1431  0.2935 -0.9829
 7580SOL    HW229031   6.850   0.782   2.094 -0.5737  1.3122 -0.3090
 7582SOL     OW29032   5.114   7.695   2.656  0.1425 -0.1526 -0.2805
 7582SOL    HW129033   5.045   7.682   2.584 -0.7507  2.3134  0.0719
 7582SOL    HW229034   5.205   7.690   2.616 -0.3442  1.4525 -1.6921
 7583SOL     OW29035   1.070   0.695   1.080  0.1287 -0.1451 -0.1130
 7583SOL    HW129036   1.061   0.608   1.128  1.9161 -1.2671 -1.7453
 7583SOL    HW229037   1.020   0.691   0.994  0.2869  0.4032 -0.2314
 7584SOL     OW29038   2.753   2.590   1.559 -0.3870  0.0914  0.4515
 7584SOL    HW129039   2.795   2.501   1.549 -1.9541 -0.5874 -0.2222
 7584SOL    HW229040   2.794   2.655   1.495 -2.6718 -1.4192 -2.6769
 7585SOL     OW29041   0.240   6.305   3.489  0.7374 -0.0479 -0.3753
 7585SOL    HW129042   0.280   6.348   3.571  0.4449 -3.1685  1.4846
 7585SOL    HW229043   0.147   6.338   3.476 -0.5449 -2.1804  2.7540
 7586SOL     OW29044   9.209   0.481   2.408  0.0766 -0.4815  0.5364
 7586SOL    HW129045   9.182   0.434   2.492  1.4272  0.9912  1.8322
 7586SOL    HW229046   9.300   0.521   2.419 -0.8018  2.0142 -0.6642
 7587SOL     OW29047   8.193   8.784   3.431  0.5022 -0.0990  0.0595
 7587SOL    HW129048   8.216   8.715   3.363  0.5462  0.4427 -0.4861
 7587SOL    HW229049   8.253   8.863   3.419 -1.5689  1.3244 -1.3557
 7588SOL     OW29050   7.941   5.402   2.787  0.5770  0.4479  0.0483
 7588SOL    HW129051   7.897   5.468   2.847 -1.5711  0.0162 -1.0222
 7588SOL    HW229052   7.992   5.450   2.716 -0.6804  0.9671 -0.5128
 7589SOL     OW29053   8.940   0.217   0.815  0.0111 -0.3195  0.0408
 7589SOL    HW129054   9.007   0.278   0.772  1.0745 -1.3397  0.2419
 7589SOL    HW229055   8.910   0.257   0.901  0.1620  0.2678 -0.1721
 7590SOL     OW29056   8.618   9.703   3.391  0.3460 -0.3330 -0.5609
 7590SOL    HW129057   8.597   9.627   3.329  2.3839 -0.0729 -1.6002
 7590SOL    HW229058   8.711   9.736   3.374 -0.2739  1.9907  0.2874
 7591SOL     OW29059   9.691   6.052   1.409  0.1246 -0.2261  0.1332
 7591SOL    HW129060   9.703   6.080   1.505  0.9605 -0.6079  0.1498
 7591SOL    HW229061   9.709   5.954   1.401  2.6329  0.2596 -0.8352
 7593SOL     OW29062   9.205   8.769   3.532  0.7053 -0.1046 -0.1176
 7593SOL    HW129063   9.225   8.825   3.613  0.8465  0.2106 -0.3728
 7593SOL    HW229064   9.252   8.681   3.541  1.4288  0.2659 -0.2639
 7594SOL     OW29065   6.343   9.285   3.012 -0.4720  0.1639  0.3205
 7594SOL    HW129066   6.360   9.224   3.089  0.1584  0.8950  0.7685
 7594SOL    HW229067   6.430   9.325   2.981 -0.6623 -0.4459 -1.0413
 7595SOL     OW29068   2.381   0.986   0.763 -0.6737 -0.0363  0.0835
 7595SOL    HW129069   2.402   1.038   0.846  0.4703 -0.9782  0.3940
 7595SOL    HW229070   2.294   0.938   0.775  0.3809 -1.6541  1.4776
 7596SOL     OW29071   0.705   1.905   2.795 -0.1101  0.1039 -0.5127
 7596SOL    HW129072   0.629   1.960   2.831 -0.2267  1.9796 -3.4701
 7596SOL    HW229073   0.790   1.957   2.803  0.5000 -1.0449  0.5983
 7599SOL     OW29074   3.879   8.565   0.363  0.0730  0.3703  0.3519
 7599SOL    HW129075   3.862   8.467   0.346 -2.0577  0.8278 -0.3498
 7599SOL    HW229076   3.976   8.584   0.353  0.2086 -1.2414 -1.7827
 7601SOL     OW29077   3.351   4.115   0.276  0.4327  0.2631  0.0240
 7601SOL    HW129078   3.392   4.200   0.306  1.4265 -0.6777  1.3903
 7601SOL    HW229079   3.399   4.038   0.318 -0.3705 -0.9756 -1.2795
 7602SOL     OW29080   9.850   1.902   3.537 -0.3516 -0.2059  0.1598
 7602SOL    HW129081   9.932   1.931   3.586 -0.0146  0.2541 -0.6718
 7602SOL    HW229082   9.807   1.981   3.494  0.0719 -0.7841 -1.3725
 7604SOL     OW29083   8.581   9.039   2.215  0.0690  0.6738  0.2942
 7604SOL    HW129084   8.629   9.045   2.303  0.0442 -0.6163  0.4038
 7604SOL    HW229085   8.646   9.016   2.143 -0.5019 -2.1855  0.6169
 7605SOL     OW29086   5.153   0.794   3.665 -0.0692  0.1301 -0.2472
 7605SOL    HW129087   5.232   0.741   3.635  0.0787  0.0308  0.3154
 7605SOL    HW229088   5.181   0.887   3.688 -0.2248  0.2788 -0.6502
 7606SOL     OW29089   9.321   4.040   3.321  0.1374 -0.8825 -0.4466
 7606SOL    HW129090   9.401   4.100   3.326 -0.7811  0.2300  1.1850
 7606SOL    HW229091   9.296   4.028   3.225  1.1308  0.2732 -0.8797
 7608SOL     OW29092   3.384   9.117   3.449 -0.4906 -0.8547  0.0374
 7608SOL    HW129093   3.300   9.171   3.444  0.0328  0.0478  0.9589
 7608SOL    HW229094   3.431   9.122   3.360  0.3632  1.5473  0.5691
 7609SOL     OW29095   3.625   8.269   4.095  0.2054 -0.3032 -0.2101
 7609SOL    HW129096   3.551   8.220   4.141  0.2045 -0.0955  0.0096
 7609SOL    HW229097   3.712   8.249   4.141 -0.1076  1.6678  1.2651
 7610SOL     OW29098   6.501   0.810   0.891  0.0148 -0.0562  0.0893
 7610SOL    HW129099   6.559   0.730   0.874  0.0349  0.3836 -2.0381
 7610SOL    HW229100   6.555   0.894   0.879 -0.7429  0.3324 -0.6537
 7611SOL     OW29101   7.894   4.249   0.400 -0.1970  0.3627 -0.2553
 7611SOL    HW129102   7.981   4.243   0.450 -0.1078 -0.5130 -0.4964
 7611SOL    HW229103   7.819   4.261   0.466 -0.0796 -0.7991  0.1077
 7612SOL     OW29104   1.770   6.916   4.053  0.3759  0.0504  0.1951
 7612SOL    HW129105   1.831   6.860   4.109 -0.3142  0.4447  1.3795
 7612SOL    HW229106   1.823   6.965   3.984  1.1403 -1.0820 -0.0288
 7613SOL     OW29107   5.338   8.203   3.544  0.7645 -0.1434  0.1679
 7613SOL    HW129108   5.259   8.172   3.597 -0.7496 -0.1962 -2.0391
 7613SOL    HW229109   5.321   8.295   3.509  1.5830 -0.2544 -0.5385
 7614SOL     OW29110   7.750   2.299   0.369  0.2250  0.1156  0.4822
 7614SOL    HW129111   7.810   2.327   0.295 -0.8487  1.3984  0.0861
 7614SOL    HW229112   7.734   2.200   0.363  1.2383 -0.0110 -0.1722
 7615SOL     OW29113   8.765   5.090   0.491  0.3571 -0.3035  1.2328
 7615SOL    HW129114   8.665   5.089   0.502  0.4286 -1.8726  1.7931
 7615SOL    HW229115   8.787   5.109   0.395 -0.5014 -0.9452  0.8941
 7616SOL     OW29116   0.915   8.909   2.441 -0.0196 -0.3658  0.3919
 7616SOL    HW129117   0.862   8.910   2.526  0.6689 -1.0237  0.8400
 7616SOL    HW229118   0.936   9.003   2.413  0.3582 -0.1556  1.3424
 7617SOL     OW29119   2.936   4.161   3.005 -0.7705 -0.2509 -0.6609
 7617SOL    HW129120   2.946   4.068   2.969 -1.7960 -0.2227 -1.0484
 7617SOL    HW229121   2.898   4.220   2.934 -0.8403  0.2959 -0.1742
 7618SOL     OW29122   0.549   2.821   1.127  0.3504  0.1370  0.1731
 7618SOL    HW129123   0.498   2.836   1.043 -0.6231 -0.6167  0.6304
 7618SOL    HW229124   0.531   2.730   1.163 -0.1989  0.8719  1.8450
 7619SOL     OW29125   8.075   2.091   0.554  0.5942  0.5117 -0.3405
 7619SOL    HW129126   8.011   2.096   0.631  2.1759 -0.2243  1.0368
 7619SOL    HW229127   8.069   2.001   0.511  0.8060  0.3927 -0.1211
 7620SOL     OW29128   8.223   6.092   1.168 -0.1484 -1.0132 -0.2953
 7620SOL    HW129129   8.206   6.151   1.090  0.8117 -1.6518 -0.9995
 7620SOL    HW229130   8.309   6.119   1.213 -0.5002 -0.8883  0.3130
 7621SOL     OW29131   9.504   8.852   2.629  0.5712 -0.1766 -0.5521
 7621SOL    HW129132   9.571   8.918   2.663  0.4091  0.1355 -0.8347
 7621SOL    HW229133   9.536   8.759   2.647 -0.1176 -0.0189  1.6554
 7622SOL     OW29134   2.404   5.447   2.535 -0.1676 -0.2543 -0.7005
 7622SOL    HW129135   2.498   5.416   2.520  0.7423  1.8918  0.2199
 7622SOL    HW229136   2.340   5.375   2.510  1.7533 -2.0321 -0.6409
 7623SOL     OW29137   0.803   0.428   0.756  0.4148  0.3664  0.0820
 7623SOL    HW129138   0.815   0.355   0.689  0.3371 -0.1270  0.6038
 7623SOL    HW229139   0.806   0.517   0.709 -0.4843 -0.0026 -0.7047
 7625SOL     OW29140   0.553   6.478   1.523 -0.4325  0.0748 -0.3049
 7625SOL    HW129141   0.586   6.392   1.486  0.5540  0.7021 -0.9162
 7625SOL    HW229142   0.599   6.554   1.476 -1.3800  0.9279  0.1323
 7626SOL     OW29143   0.173   7.237   3.766 -0.0356  0.0806 -0.5041
 7626SOL    HW129144   0.143   7.273   3.855  2.1876 -0.3937  0.4676
 7626SOL    HW229145   0.205   7.143   3.777  1.7615  0.5513 -1.4871
 7629SOL     OW29146   4.184   1.430   1.967 -0.1510  0.2233 -0.2178
 7629SOL    HW129147   4.158   1.471   1.880 -1.4314  0.4151  0.2375
 7629SOL    HW229148   4.127   1.468   2.040  0.5937 -0.2696  0.6345
 7630SOL     OW29149   3.751   8.870   0.198 -0.3545 -0.6451  0.1701
 7630SOL    HW129150   3.665   8.897   0.241  0.9072  0.6022  1.9710
 7630SOL    HW229151   3.757   8.913   0.108 -1.9854 -1.4455 -0.3496
 7631SOL     OW29152   3.902   4.189   1.441 -0.4165 -0.2387 -0.0413
 7631SOL    HW129153   3.823   4.129   1.450 -1.1698  0.9565  1.6126
 7631SOL    HW229154   3.914   4.242   1.525  1.5388  0.3379 -0.6494
 7632SOL     OW29155   1.185   4.210   1.020 -0.2040 -0.0395  0.0612
 7632SOL    HW129156   1.091   4.191   0.995 -0.4535  0.6768  0.4335
 7632SOL    HW229157   1.218   4.290   0.969 -0.1740  0.3973  0.7532
 7633SOL     OW29158   9.850   1.404   4.063  0.1497  0.0915 -0.0209
 7633SOL    HW129159   9.809   1.352   4.137 -1.6690  1.6103  0.1042
 7633SOL    HW229160   9.832   1.358   3.976 -2.6798  1.1426 -0.0650
 7634SOL     OW29161   9.223   8.392   3.348  0.5943 -0.2622  0.2913
 7634SOL    HW129162   9.223   8.326   3.273 -0.4537 -1.3278  1.2021
 7634SOL    HW229163   9.310   8.387   3.396  0.7235 -0.6012  0.0264
 7635SOL     OW29164   9.142   7.925   3.953  0.0626 -0.6592  0.5116
 7635SOL    HW129165   9.065   7.883   4.001 -0.3306  0.2829  0.7096
 7635SOL    HW229166   9.226   7.906   4.003 -0.4259  0.8696  1.9466
 7636SOL     OW29167   2.779   5.689   2.357 -0.4363  0.5623 -0.2282
 7636SOL    HW129168   2.748   5.756   2.424 -2.2038  0.0132 -0.4881
 7636SOL    HW229169   2.701   5.644   2.316  0.7099 -1.1014 -0.6386
 7637SOL     OW29170   9.624   9.782   2.895 -0.7842  0.1569 -0.3376
 7637SOL    HW129171   9.644   9.684   2.898 -1.8961 -0.0754 -0.2615
 7637SOL    HW229172   9.648   9.823   2.983 -1.2029 -0.2365 -0.0307
 7638SOL     OW29173   0.740   6.803   0.540 -0.6805  1.2314  0.3582
 7638SOL    HW129174   0.732   6.717   0.590 -1.3819  1.1939  0.1757
 7638SOL    HW229175   0.730   6.786   0.442 -1.1411  1.5725  0.3489
 7639SOL     OW29176   7.450   0.884   4.245 -0.0869 -0.2612  0.4486
 7639SOL    HW129177   7.386   0.923   4.179  0.5820 -1.0635 -0.6808
 7639SOL    HW229178   7.528   0.945   4.257 -0.7252  0.4102  1.3494
 7640SOL     OW29179   1.352   5.419   3.394  0.1120  0.7823  0.7550
 7640SOL    HW129180   1.297   5.450   3.471  0.6023 -0.1246  1.4897
 7640SOL    HW229181   1.338   5.320   3.381 -0.8097  1.1302 -1.0180
 7641SOL     OW29182   8.559   6.971   0.788 -0.1771  0.2293 -0.2347
 7641SOL    HW129183   8.585   6.963   0.885 -0.9452 -2.7118 -0.2132
 7641SOL    HW229184   8.495   7.047   0.777 -0.4426  0.3103  1.6634
 7642SOL     OW29185   9.072   9.012   1.444  0.2815 -0.8953  0.2226
 7642SOL    HW129186   9.031   9.074   1.377 -2.6794 -1.8654  1.0385
 7642SOL    HW229187   9.095   9.063   1.526  0.8239 -0.3103 -0.2853
 7643SOL     OW29188   9.158   9.873   1.211 -0.1850 -0.6440 -0.2608
 7643SOL    HW129189   9.147   9.844   1.116 -0.4491  0.7024 -0.6546
 7643SOL    HW229190   9.251   9.906   1.225 -0.6139  0.6808 -0.4851
 7644SOL     OW29191   9.567   2.970   0.835 -0.3612 -0.1015  0.3832
 7644SOL    HW129192   9.486   2.911   0.847  0.3322 -1.5031 -1.5394
 7644SOL    HW229193   9.647   2.913   0.817  0.7696  1.3650  0.6958
 7646SOL     OW29194   0.670   1.531   0.470 -0.0501  0.2980 -0.1286
 7646SOL    HW129195   0.583   1.533   0.519  0.9765 -1.1734  1.8013
 7646SOL    HW229196   0.725   1.611   0.495 -0.0931  0.2706  0.0500
 7647SOL     OW29197   9.266   0.911   2.991  0.0476  0.2636  0.3837
 7647SOL    HW129198   9.234   0.995   2.948 -0.1550 -1.0420 -2.0811
 7647SOL    HW229199   9.365   0.906   2.985  0.0207  0.0936  0.0863
 7648SOL     OW29200   3.911   8.505   1.678 -0.2489  0.0050  0.1488
 7648SOL    HW129201   3.895   8.529   1.582 -0.2855 -0.6659 -0.0145
 7648SOL    HW229202   3.914   8.406   1.688  2.2784  0.0814  0.4350
 7649SOL     OW29203   3.837   0.962   1.699 -0.2588  0.3773 -0.0989
 7649SOL    HW129204   3.863   0.893   1.632 -0.7293  0.9947 -0.9318
 7649SOL    HW229205   3.791   1.038   1.652 -2.6834 -0.2361  1.1686
 7650SOL     OW29206   5.115   3.535   0.401  0.2741 -0.0702  0.0417
 7650SOL    HW129207   5.072   3.623   0.382  1.7131  0.6547  0.0017
 7650SOL    HW229208   5.075   3.495   0.484 -2.6679 -0.9697 -1.7725
 7651SOL     OW29209   8.622   1.272   1.362  0.3915 -0.0701  0.8664
 7651SOL    HW129210   8.705   1.308   1.319  0.4312  1.0445  1.8485
 7651SOL    HW229211   8.542   1.310   1.316  0.3473 -2.4659 -1.2141
 7652SOL     OW29212   9.252   2.825   3.492 -0.2083  0.2080  0.2954
 7652SOL    HW129213   9.159   2.858   3.506  0.1191  0.5217  1.8913
 7652SOL    HW229214   9.262   2.735   3.535  0.3960  0.4657  0.6984
 7653SOL     OW29215   8.811   5.917   0.547 -0.5751  0.1994  0.5054
 7653SOL    HW129216   8.907   5.942   0.550 -0.1138 -1.4142 -0.2670
 7653SOL    HW229217   8.754   5.999   0.559  0.8810  1.1304  1.1074
 7654SOL     OW29218   8.629   4.506   0.009  0.5687 -0.4448  0.0458
 7654SOL    HW129219   8.696   4.436   0.030  0.2333 -0.9832 -0.6600
 7654SOL    HW229220   8.589   4.489  -0.082  0.3047  0.5079 -0.0295
 7655SOL     OW29221   2.388   1.000   1.893  0.3086  0.4538  0.3894
 7655SOL    HW129222   2.368   0.904   1.915  0.8282  0.3243  0.2908
 7655SOL    HW229223   2.330   1.059   1.950 -1.9099  0.0752 -1.3872
 7656SOL     OW29224   7.727   6.457   3.417 -0.3358  0.1217  0.0046
 7656SOL    HW129225   7.662   6.411   3.478  0.0860  1.2879  1.3655
 7656SOL    HW229226   7.703   6.554   3.409  0.1810  0.1810 -0.9219
 7657SOL     OW29227   9.228   8.022   2.875 -0.1586  0.5352 -0.1840
 7657SOL    HW129228   9.203   8.005   2.780 -1.0766  1.8982 -0.1998
 7657SOL    HW229229   9.146   8.029   2.930  0.1785  3.7196  0.0026
 7658SOL     OW29230   8.993   2.155   3.031  0.0934  0.6926 -0.2285
 7658SOL    HW129231   8.952   2.231   2.980  1.7007  1.7565  0.0327
 7658SOL    HW229232   9.045   2.097   2.968 -1.7889 -0.7053 -0.5735
 7660SOL     OW29233   3.449   5.136   4.165 -0.1743  0.5230  0.0545
 7660SOL    HW129234   3.376   5.080   4.124  1.4716 -1.7567  0.1538
 7660SOL    HW229235   3.465   5.216   4.107 -1.8276  0.3660 -0.6769
 7661SOL     OW29236   4.745   1.092   2.485  0.4407  0.1785  0.7830
 7661SOL    HW129237   4.839   1.108   2.455  0.3435  0.6561  0.7328
 7661SOL    HW229238   4.741   1.096   2.585  1.0674 -2.9980  0.9891
 7663SOL     OW29239   2.405   2.780   1.920 -0.7128 -0.2407 -0.3160
 7663SOL    HW129240   2.484   2.835   1.893 -2.0816  1.3695 -1.1127
 7663SOL    HW229241   2.397   2.780   2.020 -1.1468  1.6552 -0.3380
 7665SOL     OW29242   7.395   4.737   0.715 -0.1062 -0.1508  0.2998
 7665SOL    HW129243   7.320   4.673   0.730  1.1812 -2.3756 -2.2727
 7665SOL    HW229244   7.417   4.741   0.617  2.3135  1.3862  0.8476
 7666SOL     OW29245   9.643   7.421   1.120 -0.0502 -0.3124 -0.4174
 7666SOL    HW129246   9.733   7.394   1.153  0.8683  0.4008 -2.2723
 7666SOL    HW229247   9.582   7.341   1.122 -0.0155 -0.3446  2.7584
 7668SOL     OW29248   3.413   0.202   3.992  0.4349 -0.1786  0.2278
 7668SOL    HW129249   3.334   0.258   3.969  0.1848 -0.1965  1.0517
 7668SOL    HW229250   3.439   0.216   4.087  3.0526  1.8167 -0.7264
 7669SOL     OW29251   9.082   0.117   3.681 -0.5858  0.0167  0.8804
 7669SOL    HW129252   9.104   0.207   3.643  0.2375 -0.4368  0.2426
 7669SOL    HW229253   9.030   0.128   3.766 -2.3400  1.0572 -0.3003
 7670SOL     OW29254   2.030   5.357   2.623 -0.5268 -0.7593  0.2339
 7670SOL    HW129255   2.070   5.333   2.711 -3.7096 -2.6542  1.2167
 7670SOL    HW229256   1.931   5.357   2.630 -0.8358 -0.6401 -3.2817
 7671SOL     OW29257   3.170   5.075   0.917  0.5642  0.2467 -0.2326
 7671SOL    HW129258   3.093   5.017   0.891  0.0392  1.2611 -0.9869
 7671SOL    HW229259   3.144   5.171   0.907  2.1413  0.6041 -1.1323
 7672SOL     OW29260   1.744   4.592   4.275 -0.2777  0.1877 -0.0084
 7672SOL    HW129261   1.761   4.545   4.189 -0.3190 -2.8062  1.5695
 7672SOL    HW229262   1.677   4.665   4.261 -0.3590 -0.3363 -2.4600
 7673SOL     OW29263   0.554   5.835   4.405  0.6567  0.1589 -0.4732
 7673SOL    HW129264   0.503   5.792   4.479  0.3531  0.7406 -0.3348
 7673SOL    HW229265   0.494   5.846   4.325  0.8503 -0.0490 -0.6492
 7674SOL     OW29266   4.059   8.404   3.217 -0.2360 -0.2158 -0.3526
 7674SOL    HW129267   4.127   8.338   3.249 -0.6345 -0.5501 -0.1939
 7674SOL    HW229268   4.022   8.454   3.295 -0.9427 -0.7788 -0.3189
 7675SOL     OW29269   4.192   3.148   1.513 -0.3674  0.0389  0.3743
 7675SOL    HW129270   4.145   3.062   1.533  0.6525 -0.9025 -1.1981
 7675SOL    HW229271   4.278   3.153   1.565  0.3015 -0.5757 -0.6618
 7676SOL     OW29272   9.573   5.933   3.233 -0.0442  0.3540 -0.0194
 7676SOL    HW129273   9.476   5.947   3.210 -0.2679 -1.7457 -0.3927
 7676SOL    HW229274   9.597   5.837   3.220  1.9067  0.7110  0.8207
 7677SOL     OW29275   3.297   7.053   0.630  0.3475  0.3449 -0.2629
 7677SOL    HW129276   3.209   7.021   0.594  0.0358 -0.9325  1.5631
 7677SOL    HW229277   3.321   7.140   0.586 -0.7355 -0.3875 -2.3920
 7678SOL     OW29278   3.104   2.578   3.423 -0.4952 -0.0019 -0.8351
 7678SOL    HW129279   3.016   2.533   3.407 -0.7946 -0.0233  0.8114
 7678SOL    HW229280   3.155   2.582   3.337 -2.1694  0.1642 -1.8530
 7679SOL     OW29281   2.674   7.352   2.368  0.1716  0.5747 -0.0278
 7679SOL    HW129282   2.596   7.289   2.373 -0.6034  1.5826  1.0032
 7679SOL    HW229283   2.706   7.358   2.273 -0.0594 -0.9781 -0.2138
 7680SOL     OW29284   2.053   3.980   0.250  0.0752  0.3535 -0.5936
 7680SOL    HW129285   2.106   4.016   0.174  1.7067 -0.0574  0.3028
 7680SOL    HW229286   1.985   4.047   0.279 -1.2957  0.0745 -3.0910
 7681SOL     OW29287   3.272   0.845   2.777 -0.3248 -0.3384 -0.4400
 7681SOL    HW129288   3.369   0.863   2.794 -0.5742  2.0703 -1.4753
 7681SOL    HW229289   3.237   0.910   2.710 -2.9013 -0.6045  0.6015
 7682SOL     OW29290   5.008   0.120   2.787  0.1102  0.1709  0.5818
 7682SOL    HW129291   4.977   0.201   2.738  0.1563 -0.2308 -0.1094
 7682SOL    HW229292   5.099   0.094   2.756 -0.1143 -0.4472  0.4387
 7683SOL     OW29293   2.281   8.475   2.660  0.4648 -0.5908 -0.3043
 7683SOL    HW129294   2.265   8.396   2.720  3.1026 -0.5298  0.5383
 7683SOL    HW229295   2.199   8.532   2.659 -1.7154 -3.5819 -1.3651
 7684SOL     OW29296   1.206   0.333   0.242 -0.4885  0.5482 -0.0796
 7684SOL    HW129297   1.224   0.324   0.340 -1.1128  0.2384  0.0095
 7684SOL    HW229298   1.128   0.276   0.217  0.8442 -0.8568 -1.1211
 7685SOL     OW29299   3.331   6.709   1.701 -0.1123  0.2767 -0.1464
 7685SOL    HW129300   3.389   6.652   1.643  0.4785  0.3375  0.3833
 7685SOL    HW229301   3.357   6.805   1.692 -1.5785  0.5607 -1.5875
 7686SOL     OW29302   3.012   8.043   2.312  0.1663 -0.1767  0.2344
 7686SOL    HW129303   2.966   7.954   2.317  0.4559 -0.3153  0.4860
 7686SOL    HW229304   3.077   8.043   2.237 -0.4516  0.1185 -0.3005
 7687SOL     OW29305   0.861   9.761   3.868  0.4849 -0.6270 -0.1080
 7687SOL    HW129306   0.913   9.678   3.887  1.6009 -0.1681 -1.1158
 7687SOL    HW229307   0.787   9.741   3.804  1.8999 -0.4885 -1.8147
 7688SOL     OW29308   9.525   5.071   2.356  0.4014  0.1926  0.1130
 7688SOL    HW129309   9.489   4.995   2.409 -0.1151 -0.0834 -0.6178
 7688SOL    HW229310   9.597   5.038   2.295  1.1588  0.5504  0.8001
 7689SOL     OW29311   6.951   6.855   3.674 -0.0492 -0.1418  0.1093
 7689SOL    HW129312   7.004   6.845   3.590 -0.6219  1.2462 -0.4256
 7689SOL    HW229313   6.858   6.821   3.659 -0.0859 -0.1080  0.2605
 7691SOL     OW29314   3.599   3.798   2.492  0.6652  0.6561 -0.2746
 7691SOL    HW129315   3.540   3.784   2.571  0.7415 -2.1739 -0.6646
 7691SOL    HW229316   3.679   3.852   2.519  0.9099 -0.6376  1.6754
 7692SOL     OW29317   3.936   8.242   3.021 -0.2441 -0.4089 -0.2651
 7692SOL    HW129318   3.931   8.240   2.921  1.8734 -2.0921 -0.3787
 7692SOL    HW229319   3.997   8.316   3.051 -0.9507  0.1549 -0.2038
 7693SOL     OW29320   8.177   1.868   0.876 -0.0159 -0.6083  0.2473
 7693SOL    HW129321   8.164   1.963   0.905 -1.1987 -1.2941  2.0299
 7693SOL    HW229322   8.243   1.823   0.937 -0.3636 -1.2753  0.1379
 7695SOL     OW29323   7.426   9.448   1.106 -0.2949  0.3349  0.8331
 7695SOL    HW129324   7.326   9.446   1.100 -0.3053 -2.4989  1.4343
 7695SOL    HW229325   7.457   9.382   1.175  2.0513  0.4310 -0.0832
 7696SOL     OW29326   2.814   2.184   2.171  1.0984  0.0344 -0.6755
 7696SOL    HW129327   2.907   2.157   2.145  0.4913  0.2363 -3.2803
 7696SOL    HW229328   2.751   2.108   2.152  0.6444  0.0893  0.5663
 7697SOL     OW29329   5.082   7.589   1.230 -0.1823 -0.0508 -0.4328
 7697SOL    HW129330   5.161   7.552   1.278  1.3325 -0.9269 -3.4232
 7697SOL    HW229331   5.106   7.677   1.190 -0.6707 -0.3426 -1.3921
 7698SOL     OW29332   0.703   4.476   3.592 -0.4092  0.7085  0.1004
 7698SOL    HW129333   0.781   4.414   3.594 -0.8241  0.1881  0.7259
 7698SOL    HW229334   0.621   4.425   3.563 -0.7526  0.9625  0.6096
 7699SOL     OW29335   8.330   9.280   2.485 -0.6531  0.2282 -0.0828
 7699SOL    HW129336   8.383   9.287   2.569 -0.5280 -1.1584 -0.0315
 7699SOL    HW229337   8.389   9.296   2.406 -0.4874  0.1857  0.0335
 7700SOL     OW29338   6.571   0.773   2.468  0.3856  0.1961  0.0737
 7700SOL    HW129339   6.599   0.862   2.434  1.9861 -0.4305 -0.3159
 7700SOL    HW229340   6.544   0.715   2.391  0.4787 -0.0324  0.2121
 7701SOL     OW29341   1.406   2.217   2.592 -0.0371 -0.0233 -0.2386
 7701SOL    HW129342   1.392   2.299   2.648  0.2434 -0.1340 -0.0006
 7701SOL    HW229343   1.450   2.242   2.506  0.9918 -0.0470  0.2680
 7702SOL     OW29344   0.926   1.996   0.425  0.1732  0.0296  0.4713
 7702SOL    HW129345   0.911   1.901   0.452  0.4099  0.3109  1.6344
 7702SOL    HW229346   0.851   2.052   0.458  0.0374  0.2489 -0.2092
 7703SOL     OW29347   8.013   4.464   0.867  0.3882  0.2223  0.2633
 7703SOL    HW129348   8.040   4.495   0.958 -0.5715  1.0778  0.2710
 7703SOL    HW229349   7.952   4.532   0.826  1.7051  0.3813 -1.4674
 7704SOL     OW29350   4.184   2.572   1.031  0.4645 -0.1371  0.5911
 7704SOL    HW129351   4.222   2.625   1.107 -0.0433 -1.9738  2.1619
 7704SOL    HW229352   4.248   2.498   1.007  0.5779  0.3711 -0.7179
 7705SOL     OW29353   7.937   0.597   2.732 -0.3694  0.8497  0.5195
 7705SOL    HW129354   8.016   0.608   2.793  1.3227 -0.6471 -1.3270
 7705SOL    HW229355   7.932   0.674   2.669  0.7870  0.0155 -0.6179
 7706SOL     OW29356   3.623   9.811   1.440 -0.5388 -0.4472  0.1197
 7706SOL    HW129357   3.600   9.829   1.344 -0.2077  0.6860  0.2544
 7706SOL    HW229358   3.558   9.745   1.477 -1.7251  0.4176 -0.3846
 7708SOL     OW29359   1.932   4.702   1.201  0.3126 -0.1412  0.3887
 7708SOL    HW129360   2.004   4.705   1.132  0.9417  0.1351  1.0478
 7708SOL    HW229361   1.918   4.794   1.238 -1.7065  0.1871 -1.0778
 7709SOL     OW29362   9.940   6.426   0.078 -0.4602  0.8383 -0.3158
 7709SOL    HW129363   9.902   6.439  -0.014 -0.0243 -2.1956 -0.9905
 7709SOL    HW229364  10.010   6.355   0.075  1.4169  2.5248  1.9216
 7710SOL     OW29365   0.168   1.211   1.691  0.1651  0.3653 -0.5840
 7710SOL    HW129366   0.106   1.151   1.741 -1.7250  1.6154 -1.3412
 7710SOL    HW229367   0.217   1.270   1.755  0.4453 -0.5118  0.0100
 7711SOL     OW29368   0.541   7.632   3.479 -0.2335  0.1042  0.3875
 7711SOL    HW129369   0.570   7.724   3.452 -2.1591 -0.0506 -2.5066
 7711SOL    HW229370   0.621   7.577   3.503  1.0810  2.0612  0.6135
 7713SOL     OW29371   4.476   1.127   4.333  0.3702 -0.1860  0.2908
 7713SOL    HW129372   4.470   1.222   4.301 -2.5839 -0.6180 -0.5881
 7713SOL    HW229373   4.563   1.088   4.304  0.4272  1.3943 -1.8137
 7714SOL     OW29374   5.065   2.844   3.386  1.0079  0.1401  0.8890
 7714SOL    HW129375   4.976   2.801   3.366  1.2104 -0.2678  0.8559
 7714SOL    HW229376   5.075   2.927   3.332  0.4294  0.4632  1.2647
 7715SOL     OW29377   3.881   0.063   2.480  0.5500  0.1431 -0.1662
 7715SOL    HW129378   3.942  -0.004   2.522 -0.8186 -0.3730  1.0627
 7715SOL    HW229379   3.914   0.155   2.497  1.5702 -0.1684 -0.4571
 7716SOL     OW29380   1.733   5.660   0.197  0.0416  0.1591  0.1051
 7716SOL    HW129381   1.761   5.710   0.115  2.1596 -0.1075  0.6625
 7716SOL    HW229382   1.670   5.587   0.171  0.7069  0.0660 -1.2897
 7717SOL     OW29383   2.074   2.578   3.723 -0.3786  0.0489 -0.5611
 7717SOL    HW129384   1.997   2.549   3.667 -0.1661 -0.3998 -0.6207
 7717SOL    HW229385   2.054   2.667   3.764 -0.4999  0.4293 -1.4324
 7718SOL     OW29386   2.730   4.540   3.743  1.1043  0.7021  0.2316
 7718SOL    HW129387   2.750   4.478   3.667  3.4776  2.0072 -0.2706
 7718SOL    HW229388   2.748   4.493   3.830 -2.0416 -0.9401  0.0642
 7720SOL     OW29389   8.752   2.256   2.669 -0.1485  0.2368  0.0582
 7720SOL    HW129390   8.730   2.289   2.577  1.3039  0.9560 -0.0336
 7720SOL    HW229391   8.773   2.158   2.665 -0.7016  0.1275 -0.2663
 7721SOL     OW29392   8.573   6.875   1.266 -0.2069  0.4316  0.2057
 7721SOL    HW129393   8.556   6.929   1.348  0.5767  1.7624 -0.4947
 7721SOL    HW229394   8.486   6.838   1.232 -0.4471 -0.7993  2.0607
 7722SOL     OW29395   9.507   6.846   3.294  0.7864 -0.4030  0.1881
 7722SOL    HW129396   9.480   6.823   3.201  0.3292 -0.0433  0.2271
 7722SOL    HW229397   9.607   6.852   3.300  0.7667  0.9835 -0.6218
 7723SOL     OW29398   8.911   4.977   4.163 -0.0171  0.4112 -0.0435
 7723SOL    HW129399   8.989   5.002   4.106 -0.0191 -1.0822 -0.7021
 7723SOL    HW229400   8.865   5.061   4.195  1.1382  1.2734 -0.6091
 7724SOL     OW29401   4.368   5.984   1.477  0.3608 -0.3138 -0.3662
 7724SOL    HW129402   4.418   6.068   1.494  1.3445 -0.9339 -0.1393
 7724SOL    HW229403   4.280   6.005   1.436  0.1127  0.8998  0.7526
 7725SOL     OW29404   4.594   7.154   2.467  0.0220  0.4763 -0.0277
 7725SOL    HW129405   4.494   7.154   2.462 -0.1241  1.4042  2.3228
 7725SOL    HW229406   4.628   7.061   2.461 -0.9522  0.1698 -1.0465
 7727SOL     OW29407   9.755   7.382   0.129 -0.3257  0.3302  0.3196
 7727SOL    HW129408   9.714   7.470   0.151 -1.0728 -0.1567  0.8688
 7727SOL    HW229409   9.804   7.347   0.208  1.8044  1.2489 -0.5372
 7728SOL     OW29410   2.476   2.356   1.319 -0.4597 -0.6026  0.5938
 7728SOL    HW129411   2.431   2.443   1.335  1.5736  0.5205  0.4298
 7728SOL    HW229412   2.486   2.341   1.221  0.5396 -0.2580  0.6268
 7729SOL     OW29413   1.752   9.770   0.150  0.0871  0.1176  0.1584
 7729SOL    HW129414   1.840   9.816   0.138  0.1956  0.2789  1.5360
 7729SOL    HW229415   1.735   9.710   0.072  0.7427  1.1763 -0.8192
 7730SOL     OW29416   9.355   7.441   3.746  0.1237 -0.2424 -0.2015
 7730SOL    HW129417   9.415   7.518   3.768 -0.1964 -0.0926  0.1593
 7730SOL    HW229418   9.393   7.357   3.785  0.2918 -0.2071 -0.2898
 7731SOL     OW29419   1.062   5.908   0.322  0.0082 -0.0498 -0.5644
 7731SOL    HW129420   1.148   5.895   0.274  0.4501  1.1414 -0.1349
 7731SOL    HW229421   1.069   5.989   0.381 -0.6367 -1.2701  1.2153
 7733SOL     OW29422   9.895   3.350   2.376 -0.2273  0.5489  0.1311
 7733SOL    HW129423   9.914   3.430   2.318  0.7301  2.7472  3.3582
 7733SOL    HW229424   9.810   3.366   2.427 -1.2148 -1.4952 -0.8088
 7735SOL     OW29425   1.418   3.349   3.809  0.6174  0.3612 -0.1265
 7735SOL    HW129426   1.349   3.317   3.873  0.1494 -0.2567 -0.9328
 7735SOL    HW229427   1.378   3.416   3.747  0.7838  0.1331 -0.4816
 7736SOL     OW29428   2.051   6.840   3.311 -0.3034  0.0711  0.4938
 7736SOL    HW129429   2.067   6.744   3.332  0.2757 -0.5484 -2.4596
 7736SOL    HW229430   1.957   6.865   3.333 -0.7068 -1.4305  0.4838
 7737SOL     OW29431   2.368   9.150   0.258 -0.3022  0.0123  0.3928
 7737SOL    HW129432   2.358   9.176   0.354  2.2243  1.0796  0.3853
 7737SOL    HW229433   2.335   9.224   0.199 -0.7028 -0.1397  0.4263
 7738SOL     OW29434   9.574   4.953   1.085 -0.3464 -0.2988  0.6286
 7738SOL    HW129435   9.608   5.047   1.080 -1.6668  0.1222 -1.1357
 7738SOL    HW229436   9.544   4.924   0.994 -1.6127 -1.8015  1.4928
 7739SOL     OW29437   0.034   2.085   1.403 -0.2615  0.2005  0.4380
 7739SOL    HW129438   0.092   2.019   1.356 -1.1816 -0.9502  0.8804
 7739SOL    HW229439  -0.021   2.135   1.336 -1.1203 -1.0049  0.2100
 7741SOL     OW29440   6.021   9.956   2.104  0.0243  0.3286 -0.6117
 7741SOL    HW129441   6.099  10.015   2.085 -0.0022  0.7031  0.4230
 7741SOL    HW229442   5.937   9.999   2.071  0.2299  0.0083 -1.5623
 7742SOL     OW29443   8.845   8.316   1.572 -0.1369  0.6998  0.6439
 7742SOL    HW129444   8.778   8.324   1.498  2.9234  2.7754 -2.0663
 7742SOL    HW229445   8.892   8.228   1.564  1.0202  1.4085 -0.7153
 7743SOL     OW29446   7.778   6.237   4.186 -0.0571 -0.3574  0.6019
 7743SOL    HW129447   7.706   6.305   4.201 -0.4790 -0.5915 -0.3345
 7743SOL    HW229448   7.737   6.146   4.178  0.4655 -0.6648  1.4089
 7744SOL     OW29449   0.583   8.050   1.491 -0.3077  0.0511 -0.2440
 7744SOL    HW129450   0.640   8.049   1.409  0.1875 -1.1546  0.1040
 7744SOL    HW229451   0.605   8.131   1.546  2.2180 -1.2121  0.6766
 7745SOL     OW29452   8.059   5.886   2.994 -0.2974 -0.2302 -0.1526
 7745SOL    HW129453   7.998   5.923   3.065  0.0982 -1.4134  0.8267
 7745SOL    HW229454   8.004   5.848   2.920 -0.7622 -0.8779  0.5136
 7746SOL     OW29455   8.456   0.125   2.510  0.1011 -0.1713  0.0016
 7746SOL    HW129456   8.523   0.085   2.447  1.5724 -1.2703  2.2095
 7746SOL    HW229457   8.363   0.105   2.478  0.8147 -0.0029 -2.2276
 7747SOL     OW29458   9.267   2.733   2.473 -0.2957 -0.3004 -0.0181
 7747SOL    HW129459   9.246   2.668   2.400  0.3547 -1.8147  1.1422
 7747SOL    HW229460   9.181   2.765   2.514 -0.6274 -0.0925 -0.8542
 7748SOL     OW29461   1.726   7.618   4.385  0.0927  0.6265  0.1404
 7748SOL    HW129462   1.725   7.591   4.289  1.4220 -1.2033  0.6147
 7748SOL    HW229463   1.808   7.581   4.429 -0.7187  1.0874  2.0934
 7749SOL     OW29464   8.823   5.648   3.223  0.0305  0.0757  0.3663
 7749SOL    HW129465   8.815   5.577   3.153 -0.0385  1.8994 -1.5262
 7749SOL    HW229466   8.918   5.674   3.232 -0.3911  2.5951 -1.9185
 7750SOL     OW29467   2.909   1.364   2.218  0.4482 -0.1198 -0.3700
 7750SOL    HW129468   2.862   1.276   2.223 -0.4439  0.4137  0.9246
 7750SOL    HW229469   2.966   1.376   2.300  1.7753 -0.1548 -1.2735
 7752SOL     OW29470   8.346   2.139   0.479  0.0907 -0.6703 -0.2321
 7752SOL    HW129471   8.250   2.120   0.502  0.2952 -1.4651 -0.0245
 7752SOL    HW229472   8.365   2.107   0.387  0.0665 -0.1864 -0.4076
 7753SOL     OW29473   2.361   8.881   4.260 -0.0815  0.4122 -0.4175
 7753SOL    HW129474   2.262   8.897   4.261  0.1620  2.0192 -0.5301
 7753SOL    HW229475   2.385   8.818   4.334 -1.1714  0.0756 -0.3385
 7755SOL     OW29476   0.536   8.520   2.529 -0.1160 -0.2679 -0.2022
 7755SOL    HW129477   0.494   8.532   2.619 -1.2054  0.3955 -0.7877
 7755SOL    HW229478   0.623   8.568   2.525  0.4767 -1.2256  0.8584
 7756SOL     OW29479   9.003   5.965   4.033  0.1019  0.6342  0.1906
 7756SOL    HW129480   8.956   5.882   4.001 -0.5534 -0.5357  3.9367
 7756SOL    HW229481   8.958   6.045   3.994  0.2458 -0.6995 -2.8709
 7757SOL     OW29482   4.009   2.409   1.283  0.1741 -0.2605 -0.0710
 7757SOL    HW129483   3.973   2.487   1.232  0.9009  1.2447  1.6516
 7757SOL    HW229484   4.104   2.428   1.309  0.4008 -1.7968  0.2178
 7758SOL     OW29485   1.116   6.904   3.193  0.1129  0.3248 -0.3296
 7758SOL    HW129486   1.033   6.952   3.223  0.5847  0.9427 -0.0092
 7758SOL    HW229487   1.093   6.844   3.117 -0.4470  1.2332 -0.8979
 7760SOL     OW29488   6.754   9.658   3.504 -0.0377 -0.0631 -0.7443
 7760SOL    HW129489   6.822   9.673   3.576 -0.7704  0.3861 -0.1411
 7760SOL    HW229490   6.740   9.560   3.492  0.0708 -0.1406 -0.2602
 7761SOL     OW29491   1.680   4.788   1.390 -0.3173 -0.2098 -0.4503
 7761SOL    HW129492   1.584   4.784   1.361 -0.2790 -1.4805 -0.4400
 7761SOL    HW229493   1.685   4.823   1.483 -0.6383  1.5095 -1.0706
 7762SOL     OW29494   9.645   4.139   3.658  0.1197  0.2872 -0.4028
 7762SOL    HW129495   9.623   4.127   3.754 -0.8575  0.9051 -0.5305
 7762SOL    HW229496   9.597   4.070   3.604 -1.5840  1.6320 -0.6833
 7763SOL     OW29497   2.597   1.051   0.566  0.1089 -0.6128  0.3116
 7763SOL    HW129498   2.602   1.148   0.542  0.3923 -0.6739  0.1214
 7763SOL    HW229499   2.531   1.038   0.640 -1.0594 -0.4754 -0.6939
 7764SOL     OW29500   1.953   7.997   1.558 -0.5522  0.1448  0.2573
 7764SOL    HW129501   1.862   8.013   1.597 -0.3720  0.0113  0.7245
 7764SOL    HW229502   1.988   8.083   1.521 -0.5815  0.3411  0.6803
 7765SOL     OW29503   0.701   1.399   3.379 -0.0826  1.1010  0.7825
 7765SOL    HW129504   0.622   1.423   3.322  0.0138 -0.4745 -0.0473
 7765SOL    HW229505   0.783   1.398   3.322 -0.1442 -1.5761  0.6411
 7767SOL     OW29506   9.025   7.002   0.982  0.0697 -0.4858  0.1655
 7767SOL    HW129507   9.017   7.020   0.884  0.3076  0.8085  0.3682
 7767SOL    HW229508   9.054   6.908   0.997  2.2297 -0.0484 -1.0788
 7768SOL     OW29509   4.283   8.544   1.245 -0.0360  0.2356 -0.0920
 7768SOL    HW129510   4.359   8.480   1.255 -0.0763  0.4315  1.6205
 7768SOL    HW229511   4.260   8.554   1.148  2.4873  0.6068 -0.6725
 7769SOL     OW29512   6.953   9.309   2.519  0.2062  0.5686  0.0176
 7769SOL    HW129513   7.007   9.256   2.585 -0.1644 -0.9205 -0.8586
 7769SOL    HW229514   6.910   9.247   2.454  0.7168  2.0312 -1.7584
 7770SOL     OW29515   2.683   2.246   1.856 -0.2739  0.0835 -0.1262
 7770SOL    HW129516   2.757   2.239   1.923 -1.8688 -1.8645  1.4784
 7770SOL    HW229517   2.637   2.157   1.847 -0.3077  0.3759 -3.5808
 7771SOL     OW29518   3.978   1.165   3.757 -0.0170  0.0446  0.2696
 7771SOL    HW129519   3.944   1.258   3.740 -1.3060 -0.0418  2.1415
 7771SOL    HW229520   4.009   1.158   3.852  1.4256 -1.0572 -0.2666
 7772SOL     OW29521   2.379   5.759   0.224  0.2257  0.6171 -0.3199
 7772SOL    HW129522   2.436   5.707   0.289 -1.4864 -0.8981  0.0031
 7772SOL    HW229523   2.433   5.779   0.142  1.7126  0.5729  0.6143
 7774SOL     OW29524   0.329   9.977   3.455  0.0366  0.3184  0.8505
 7774SOL    HW129525   0.310  10.075   3.455  0.2745  0.3838 -0.9128
 7774SOL    HW229526   0.249   9.927   3.422  0.1257 -0.0254  1.1567
 7775SOL     OW29527   2.686   8.858   4.029 -0.1875  0.7068  0.5871
 7775SOL    HW129528   2.763   8.825   4.083 -0.1720 -0.2609 -0.0169
 7775SOL    HW229529   2.706   8.950   3.995  0.5095  0.6355  0.7998
 7776SOL     OW29530   3.670   9.922   3.931 -0.1425  0.4802  0.4772
 7776SOL    HW129531   3.585   9.940   3.882  0.9645  1.3463 -1.1824
 7776SOL    HW229532   3.738   9.991   3.906  1.9866 -1.9140 -0.5696
 7777SOL     OW29533   8.025   3.033   4.269 -0.3410  0.2996  0.2738
 7777SOL    HW129534   8.046   3.035   4.172  0.7451  0.7839  0.5000
 7777SOL    HW229535   8.102   2.992   4.319  0.8054  3.4892  1.2890
 7778SOL     OW29536   6.186   0.747   3.982 -1.2765  0.1838 -0.5105
 7778SOL    HW129537   6.126   0.815   3.939 -1.4883  0.8369  0.7801
 7778SOL    HW229538   6.189   0.665   3.925  0.5559  1.9705 -3.1196
 7779SOL     OW29539   7.838   9.433   2.031  0.1640  0.3173  0.5424
 7779SOL    HW129540   7.865   9.357   1.973 -1.5099 -0.6831  1.0402
 7779SOL    HW229541   7.902   9.509   2.019 -1.3565  0.9947 -4.2615
 7780SOL     OW29542   9.830   9.104   1.069  0.2533  0.0427  0.3149
 7780SOL    HW129543   9.896   9.160   1.119 -0.1125 -0.6897  1.6302
 7780SOL    HW229544   9.800   9.153   0.987  2.7291  0.2105 -0.5262
 7782SOL     OW29545   3.293   6.040   0.902  0.1097 -0.3496 -0.5219
 7782SOL    HW129546   3.324   5.946   0.916  0.3622  0.0197  1.5410
 7782SOL    HW229547   3.219   6.060   0.966 -0.2692  0.7104 -1.2845
 7783SOL     OW29548   2.647   5.851   2.781  0.3794 -0.1508  0.2875
 7783SOL    HW129549   2.706   5.859   2.701 -0.3556  0.6097 -0.1805
 7783SOL    HW229550   2.659   5.760   2.822  1.9988  0.0427  0.3061
 7785SOL     OW29551   6.345   8.288   3.157 -0.1362  0.5118  0.0110
 7785SOL    HW129552   6.325   8.190   3.154  0.6159  0.3390  0.8388
 7785SOL    HW229553   6.343   8.325   3.063 -0.4646 -0.2762 -0.2958
 7787SOL     OW29554   9.198   6.737   4.246 -0.2200  0.2410  0.7731
 7787SOL    HW129555   9.216   6.701   4.155 -0.3601  0.2233  0.7520
 7787SOL    HW229556   9.257   6.691   4.312  0.0176  0.3938  0.6655
 7788SOL     OW29557   9.534   6.831   0.956  0.2476 -0.0867 -0.1005
 7788SOL    HW129558   9.583   6.744   0.959  1.1166  0.4355  1.3065
 7788SOL    HW229559   9.563   6.888   1.032 -2.1806  0.4314  0.4939
 7789SOL     OW29560   4.045   0.989   3.506  0.4159  0.4178  0.2494
 7789SOL    HW129561   4.001   1.019   3.591 -0.2235  0.0002  0.0727
 7789SOL    HW229562   4.047   1.064   3.441 -1.1730  0.0963 -0.1909
 7790SOL     OW29563   7.431   0.635   0.520 -0.4942  0.0164  0.1968
 7790SOL    HW129564   7.402   0.731   0.518  2.0213  0.7973 -1.3680
 7790SOL    HW229565   7.514   0.627   0.575 -0.3448 -1.1812 -0.1998
 7791SOL     OW29566   2.816   4.893   3.336  0.3589  0.0104  0.1233
 7791SOL    HW129567   2.771   4.807   3.309 -0.4411  0.5345 -0.2242
 7791SOL    HW229568   2.846   4.941   3.254 -0.6683  0.8526  0.2272
 7792SOL     OW29569   0.052   3.327   2.589  0.5907  0.2151  0.9151
 7792SOL    HW129570   0.150   3.310   2.577  0.9282  3.2853 -1.3399
 7792SOL    HW229571   0.008   3.332   2.500 -0.8608  2.8765  1.7375
 7793SOL     OW29572   4.267   3.035   3.094  0.2517 -0.5387  0.2583
 7793SOL    HW129573   4.247   3.025   3.191  0.8008  2.1422  0.6822
 7793SOL    HW229574   4.355   3.082   3.083 -0.9190  1.2673 -1.5382
 7794SOL     OW29575   6.263   8.276   3.532 -0.2206  0.7135  0.3738
 7794SOL    HW129576   6.276   8.369   3.567  3.2362  0.8227 -1.0389
 7794SOL    HW229577   6.347   8.224   3.544 -2.1003 -2.2550  1.0777
 7795SOL     OW29578   1.717   2.080   3.459  0.0593  0.2943 -0.5172
 7795SOL    HW129579   1.747   2.175   3.462  1.0461  0.0620 -2.1042
 7795SOL    HW229580   1.701   2.053   3.364  0.7792 -1.4125 -0.1834
 7797SOL     OW29581   2.557   6.009   4.264  0.1060  1.0285 -0.2174
 7797SOL    HW129582   2.589   5.965   4.348  0.0828  2.1083  0.3660
 7797SOL    HW229583   2.521   6.100   4.285 -1.7918  0.5250 -1.0894
 7798SOL     OW29584   1.452   1.900   4.313  0.3642 -0.1362 -0.1845
 7798SOL    HW129585   1.360   1.885   4.348  1.2302 -0.4144  2.0418
 7798SOL    HW229586   1.450   1.972   4.243 -1.6349 -0.7015 -0.7317
 7799SOL     OW29587   5.745   8.124   3.439 -0.2938  0.0438  0.1837
 7799SOL    HW129588   5.814   8.172   3.385 -0.0757  0.1510  0.5569
 7799SOL    HW229589   5.711   8.185   3.511 -1.1619  0.1765 -0.3194
 7800SOL     OW29590   3.762   9.191   4.293  0.4890 -0.2181  0.0334
 7800SOL    HW129591   3.851   9.224   4.262  0.8763 -0.7307  0.5749
 7800SOL    HW229592   3.702   9.178   4.215  1.3406 -1.1671 -0.4692
 7801SOL     OW29593   7.647   8.317   3.133  0.3359 -0.3846  0.5257
 7801SOL    HW129594   7.660   8.231   3.180  2.2419  0.8251  2.2746
 7801SOL    HW229595   7.726   8.336   3.074 -0.4012 -0.1847 -0.4110
 7803SOL     OW29596   4.958   8.272   3.051 -0.0997 -0.1140 -0.1036
 7803SOL    HW129597   4.974   8.181   3.013 -0.2921 -0.2996  0.2543
 7803SOL    HW229598   4.973   8.341   2.980  2.7937 -0.2338  0.3385
 7804SOL     OW29599   7.422   1.968   3.507  0.7004  0.8629 -0.2483
 7804SOL    HW129600   7.497   1.904   3.491 -0.3529 -0.2908 -0.5884
 7804SOL    HW229601   7.361   1.970   3.428  1.3377  3.1801 -0.7452
 7805SOL     OW29602   4.270   9.375   1.143  0.4533  0.1131 -0.3461
 7805SOL    HW129603   4.349   9.423   1.106  0.0357  1.5127  0.5145
 7805SOL    HW229604   4.284   9.358   1.241 -0.6043  1.0226 -0.0224
 7806SOL     OW29605   8.055   0.124   2.957  0.2664  0.3152  0.0378
 7806SOL    HW129606   8.038   0.134   2.859  0.4726  0.2241 -0.0079
 7806SOL    HW229607   8.024   0.035   2.988 -2.1710  1.3164  0.5747
 7807SOL     OW29608   8.898   1.797   0.524  0.1831 -0.2240  0.0405
 7807SOL    HW129609   8.944   1.881   0.552  0.0614 -0.6088  1.4148
 7807SOL    HW229610   8.825   1.775   0.588 -0.6064 -0.7093 -1.0149
 7808SOL     OW29611   4.957   1.425   0.672 -0.1368 -0.5728  0.6961
 7808SOL    HW129612   5.032   1.383   0.622  0.6961  1.3583  0.2845
 7808SOL    HW229613   4.991   1.502   0.726 -1.8831  0.5911  0.1862
 7810SOL     OW29614   3.981   9.918   2.227  0.6095 -0.0511 -0.2604
 7810SOL    HW129615   4.027   9.894   2.313 -1.8902  0.1003  1.1704
 7810SOL    HW229616   3.990  10.016   2.211 -1.9535  0.5960  1.7799
 7811SOL     OW29617   1.575   7.031   3.305 -0.3155 -0.1034 -0.3740
 7811SOL    HW129618   1.584   7.085   3.221  0.9729 -2.0694 -1.5311
 7811SOL    HW229619   1.496   6.970   3.296 -0.1381 -0.3590 -0.1880
 7812SOL     OW29620   2.120   6.963   3.542  0.2720 -0.6154 -0.0841
 7812SOL    HW129621   2.079   6.934   3.456 -1.7494  0.5033  0.4660
 7812SOL    HW229622   2.220   6.958   3.535  0.1087 -1.4202 -2.1570
 7813SOL     OW29623   0.978   1.582   1.281 -0.7793  0.4105 -0.5640
 7813SOL    HW129624   0.974   1.550   1.186 -1.4428  0.3644 -0.5201
 7813SOL    HW229625   0.940   1.674   1.287 -1.1922  0.2200 -0.2548
 7815SOL     OW29626   0.983   2.641   0.496  0.3882  0.0188 -0.1404
 7815SOL    HW129627   1.006   2.727   0.541 -0.1876  0.0856  0.0337
 7815SOL    HW229628   0.953   2.659   0.402 -0.7081  0.1146  0.2167
 7817SOL     OW29629   8.821   3.438   1.712  0.3093 -0.4185 -0.5424
 7817SOL    HW129630   8.853   3.533   1.714  0.8408 -0.5873 -0.7946
 7817SOL    HW229631   8.780   3.419   1.623 -0.1510 -0.3105 -0.3517
 7818SOL     OW29632   1.780   8.497   3.707 -0.4777  0.1332 -0.0081
 7818SOL    HW129633   1.736   8.473   3.620  0.4348 -1.5453 -0.0366
 7818SOL    HW229634   1.808   8.593   3.705  1.6468 -0.4741 -2.5247
 7820SOL     OW29635   9.495   6.438   1.898 -0.4245 -0.3490  0.0506
 7820SOL    HW129636   9.584   6.393   1.906 -0.8397 -1.1936  0.0070
 7820SOL    HW229637   9.425   6.382   1.943 -0.7516  0.8543  1.0345
 7821SOL     OW29638   9.071   6.585   2.455  0.3684 -0.1333 -0.7034
 7821SOL    HW129639   9.074   6.512   2.524  1.3684  0.1502 -0.4380
 7821SOL    HW229640   9.016   6.555   2.377  1.4861 -1.5083 -0.9815
 7822SOL     OW29641   0.445   0.911   2.482 -0.2145 -0.0268 -0.1118
 7822SOL    HW129642   0.541   0.887   2.497 -0.5252 -2.2509 -1.5479
 7822SOL    HW229643   0.388   0.858   2.545 -0.6551 -0.4662 -0.8742
 7823SOL     OW29644   6.341   8.870   3.752  0.4710 -0.3263  0.2526
 7823SOL    HW129645   6.303   8.865   3.660  1.4833 -1.4872 -0.1115
 7823SOL    HW229646   6.415   8.937   3.755  1.6101 -1.5400 -0.2209
 7825SOL     OW29647   8.697   2.872   4.022 -0.6165  0.2977 -0.4132
 7825SOL    HW129648   8.629   2.917   4.079  0.9423  2.3373 -0.1056
 7825SOL    HW229649   8.754   2.812   4.078 -2.0938 -1.3547 -0.6596
 7826SOL     OW29650   8.540   8.324   4.077 -0.3787  0.2887 -0.4333
 7826SOL    HW129651   8.509   8.358   4.166 -0.4741  0.9303 -0.7139
 7826SOL    HW229652   8.504   8.232   4.062  1.1866 -0.6020  1.0318
 7827SOL     OW29653   7.989   1.640   4.295  0.2440 -0.6067 -0.4386
 7827SOL    HW129654   8.001   1.662   4.198  0.5461 -0.9655 -0.4846
 7827SOL    HW229655   7.891   1.637   4.317  0.1117 -2.1601 -1.1199
 7829SOL     OW29656   2.335   7.138   0.105 -0.5505 -0.3310  0.3501
 7829SOL    HW129657   2.275   7.096   0.037 -0.7572 -0.9289  0.8961
 7829SOL    HW229658   2.304   7.113   0.197  0.8544 -1.1143  0.6292
 7830SOL     OW29659   0.614   2.285   2.344 -0.2918 -1.0844 -0.3314
 7830SOL    HW129660   0.605   2.220   2.269 -0.1139  0.9394 -2.1455
 7830SOL    HW229661   0.711   2.306   2.358 -0.2691 -1.9655  0.9447
 7831SOL     OW29662   3.310   7.893   3.052 -0.1257  0.0800  0.5515
 7831SOL    HW129663   3.287   7.833   2.976  2.1394  0.7588 -0.7205
 7831SOL    HW229664   3.282   7.850   3.138 -0.6225 -1.7402 -0.4981
 7832SOL     OW29665   5.267   9.844   1.090  0.4504 -0.2773 -0.0260
 7832SOL    HW129666   5.362   9.851   1.121 -0.5648  2.2206  2.7389
 7832SOL    HW229667   5.212   9.802   1.161 -0.8271 -0.2007 -0.9468
 7833SOL     OW29668   7.581   9.991   1.891 -0.2019 -0.0630  1.0326
 7833SOL    HW129669   7.493   9.955   1.922 -0.3652 -0.1052  0.5277
 7833SOL    HW229670   7.581  10.091   1.898 -0.9350  0.0774 -0.5890
 7834SOL     OW29671   4.847   0.882   4.253 -0.5840 -0.3448 -0.7012
 7834SOL    HW129672   4.900   0.875   4.168 -0.7185  0.3440 -0.8454
 7834SOL    HW229673   4.857   0.798   4.305  0.8991 -0.1153 -0.5821
 7835SOL     OW29674   1.508   8.333   3.911  0.3406  0.4119  0.6939
 7835SOL    HW129675   1.564   8.392   3.969  1.7259 -0.3470  0.1377
 7835SOL    HW229676   1.484   8.250   3.960  0.4120  0.3599  0.6416
 7837SOL     OW29677   7.056   9.066   1.067 -0.3821 -0.1133 -0.1757
 7837SOL    HW129678   6.976   9.077   1.126 -1.1813 -0.1114 -1.2490
 7837SOL    HW229679   7.086   8.971   1.067  0.1420  0.0429  0.8905
 7838SOL     OW29680   1.246   7.744   1.428  0.4686  0.1001 -0.3877
 7838SOL    HW129681   1.323   7.701   1.380  0.8536  2.5279 -2.0012
 7838SOL    HW229682   1.164   7.688   1.414  0.4601  0.9073 -4.3223
 7839SOL     OW29683   8.715   3.351   3.493 -0.4359  0.0173 -0.0151
 7839SOL    HW129684   8.718   3.302   3.580  2.1828  0.1170  0.0088
 7839SOL    HW229685   8.806   3.348   3.451 -1.4821  0.6341 -2.3805
 7841SOL     OW29686   7.647   2.038   0.294 -0.1326 -0.2984 -0.0249
 7841SOL    HW129687   7.652   1.940   0.313 -0.1819 -0.6732 -1.8728
 7841SOL    HW229688   7.564   2.075   0.336  0.2112 -0.9029  1.2301
 7842SOL     OW29689   5.605   0.597   2.581 -0.3580  0.3704 -0.1869
 7842SOL    HW129690   5.699   0.585   2.613 -0.8022 -0.9643  0.6482
 7842SOL    HW229691   5.545   0.532   2.627 -1.1667 -1.0749 -3.1695
 7843SOL     OW29692   3.982   8.266   3.458 -0.1777 -0.3100 -0.2809
 7843SOL    HW129693   3.940   8.238   3.371  0.4843 -4.3634  0.6290
 7843SOL    HW229694   3.920   8.245   3.533  0.9827 -0.7295  0.5606
 7845SOL     OW29695   4.186   0.584   1.608 -0.1789  0.3222 -0.4791
 7845SOL    HW129696   4.183   0.492   1.570  2.5484  0.6885 -1.7272
 7845SOL    HW229697   4.105   0.635   1.580 -2.6470 -2.2176  1.7776
 7847SOL     OW29698   4.008   2.364   3.956 -0.6190 -0.0599  0.3891
 7847SOL    HW129699   3.941   2.414   3.902 -1.0711  0.7048  1.6219
 7847SOL    HW229700   4.050   2.292   3.900  0.9684  2.4983 -1.7910
 7848SOL     OW29701   9.175   1.732   1.721 -0.1845  1.3024  0.1327
 7848SOL    HW129702   9.170   1.804   1.790  1.1830  1.9593 -0.4408
 7848SOL    HW229703   9.182   1.773   1.630  1.5519  0.4622 -0.1305
 7849SOL     OW29704   9.966   6.840   2.440  0.0895 -0.5107 -0.4057
 7849SOL    HW129705  10.030   6.889   2.499  0.5213 -2.5970  0.9254
 7849SOL    HW229706  10.009   6.823   2.351  0.4922  0.1695 -0.3459
 7852SOL     OW29707   1.705   7.337   0.320  0.1443  0.4631  0.1170
 7852SOL    HW129708   1.612   7.374   0.315  0.6298  1.7350  0.3007
 7852SOL    HW229709   1.753   7.357   0.235  1.1690  2.3605  1.1146
 7853SOL     OW29710   1.857   8.522   0.103 -0.4710 -0.0214  0.4157
 7853SOL    HW129711   1.802   8.458   0.050  0.4681  0.5875 -1.3079
 7853SOL    HW229712   1.900   8.474   0.180  0.7144 -1.5931 -1.2174
 7854SOL     OW29713   8.953   1.670   1.394  0.0874  0.8173 -0.5865
 7854SOL    HW129714   8.939   1.695   1.490  0.6120  1.0664 -0.5732
 7854SOL    HW229715   8.980   1.751   1.342 -1.8308  1.0487 -1.2897
 7855SOL     OW29716   0.322   2.768   2.859 -0.2138  0.3083  0.5910
 7855SOL    HW129717   0.225   2.756   2.881  0.2327 -0.6112  2.1516
 7855SOL    HW229718   0.360   2.840   2.916 -0.0302  0.8325 -0.1901
 7856SOL     OW29719   5.974   1.658   3.527 -0.1058  0.2226  0.0912
 7856SOL    HW129720   6.063   1.682   3.488 -0.7974  1.6824 -0.6343
 7856SOL    HW229721   5.913   1.627   3.453 -0.8668  1.2962  0.2555
 7857SOL     OW29722   8.318   8.884   1.528 -0.5076  0.0031  0.8852
 7857SOL    HW129723   8.328   8.976   1.567  1.6296  0.7380 -1.2850
 7857SOL    HW229724   8.379   8.821   1.576  1.1253  0.6196 -0.3602
 7858SOL     OW29725   0.190   4.949   1.828  0.0429  0.1116 -0.3752
 7858SOL    HW129726   0.158   5.043   1.842  0.8661  0.2049  0.8957
 7858SOL    HW229727   0.251   4.946   1.749 -1.4048  0.3109 -1.5283
 7860SOL     OW29728   1.521   0.499   3.972 -0.2131  0.9000 -0.2426
 7860SOL    HW129729   1.514   0.537   3.880 -1.6500  2.0645  0.3336
 7860SOL    HW229730   1.546   0.572   4.036 -2.0680  0.6927  0.7393
 7861SOL     OW29731   8.130   5.670   4.218 -0.0954  0.4083  0.0555
 7861SOL    HW129732   8.217   5.712   4.191  0.2989  0.0908  0.8315
 7861SOL    HW229733   8.131   5.650   4.316  0.5645 -3.3271 -0.6295
 7862SOL     OW29734   1.691   2.844   2.682  0.3537 -0.1722  0.0132
 7862SOL    HW129735   1.731   2.916   2.626  0.7195 -1.3555 -1.3022
 7862SOL    HW229736   1.750   2.825   2.760 -0.6665  2.2004  1.3895
 7863SOL     OW29737   9.710   4.093   2.315  0.3364 -0.0052 -0.0573
 7863SOL    HW129738   9.700   4.074   2.413 -1.1878 -2.2425 -0.5938
 7863SOL    HW229739   9.782   4.034   2.277 -0.1354 -0.2515 -0.5735
 7864SOL     OW29740   8.013   8.979   3.299 -0.2848  0.1517 -0.2203
 7864SOL    HW129741   7.918   9.005   3.317 -0.2034  0.5021 -0.2899
 7864SOL    HW229742   8.054   8.944   3.382 -0.7861 -0.9671 -0.4417
 7865SOL     OW29743   8.163   3.910   0.384 -0.0019  0.0041  0.0024
 7865SOL    HW129744   8.186   3.985   0.322  0.9725 -1.3012 -1.2683
 7865SOL    HW229745   8.070   3.879   0.365 -0.7046  1.4159  1.0935
 7868SOL     OW29746   8.166   5.469   1.070 -0.1132  0.1519 -0.1431
 7868SOL    HW129747   8.135   5.380   1.104  0.2216 -0.8796 -2.4936
 7868SOL    HW229748   8.093   5.511   1.016  0.2284  0.7136 -0.1698
 7869SOL     OW29749   2.198   5.905   1.241 -0.4462 -0.7828  0.0783
 7869SOL    HW129750   2.207   5.845   1.161 -1.2629 -1.0954  0.2181
 7869SOL    HW229751   2.207   5.851   1.324  1.5413 -0.2819  0.2072
 7871SOL     OW29752   0.319   5.587   2.433  0.1847  0.4090 -0.2889
 7871SOL    HW129753   0.305   5.561   2.337 -0.3246 -0.0177 -0.0996
 7871SOL    HW229754   0.388   5.659   2.438  1.0101 -0.3316 -0.8882
 7872SOL     OW29755   3.896   6.009   1.132 -0.1559  0.0489  0.4409
 7872SOL    HW129756   3.936   6.059   1.055  1.3828  0.5663  1.5426
 7872SOL    HW229757   3.814   6.058   1.164  0.5930  1.1781  0.6748
 7873SOL     OW29758   0.686   5.333   3.568 -0.5373  0.1291  0.8627
 7873SOL    HW129759   0.683   5.259   3.500 -1.6261 -0.2805  1.3564
 7873SOL    HW229760   0.764   5.393   3.547 -0.4196 -0.4068 -0.3138
 7875SOL     OW29761   1.489   7.421   3.124 -0.0332  0.4756 -0.5423
 7875SOL    HW129762   1.392   7.439   3.137 -0.3916 -1.2783 -0.6120
 7875SOL    HW229763   1.517   7.449   3.032 -0.2697  1.7192 -0.2467
 7876SOL     OW29764   2.407   1.350   2.579 -0.3522  0.0630 -0.1128
 7876SOL    HW129765   2.309   1.365   2.563 -0.4727 -0.3594  0.2338
 7876SOL    HW229766   2.430   1.255   2.558  0.1985  0.4376 -1.2444
 7877SOL     OW29767   2.491   0.513   3.463  0.3547  0.4954  0.2663
 7877SOL    HW129768   2.527   0.499   3.555 -0.1981 -0.0726  0.3975
 7877SOL    HW229769   2.523   0.441   3.402 -0.5430  0.0030  0.3792
 7878SOL     OW29770   1.275   4.331   2.550  0.3426 -0.1567  0.6266
 7878SOL    HW129771   1.253   4.379   2.635 -0.8023 -0.0282  0.2591
 7878SOL    HW229772   1.371   4.349   2.527  0.7781 -0.5303  2.0982
 7879SOL     OW29773   3.722   8.040   0.217  0.6289 -0.2536 -0.1183
 7879SOL    HW129774   3.726   7.959   0.276 -0.9166  0.5142  1.0758
 7879SOL    HW229775   3.638   8.091   0.237  1.5277  1.5640 -0.9517
 7880SOL     OW29776   2.231   9.973   1.820 -0.1175 -0.3816 -0.2570
 7880SOL    HW129777   2.146   9.973   1.767 -0.7829  1.0964  0.7637
 7880SOL    HW229778   2.212   9.941   1.913  0.1606  1.1305  0.3417
 7881SOL     OW29779   3.723   6.938   3.671 -0.1159 -0.2164 -0.3684
 7881SOL    HW129780   3.748   7.018   3.727  0.0421 -0.2502 -0.3911
 7881SOL    HW229781   3.796   6.919   3.606 -0.0249 -0.5594 -0.1680
 7882SOL     OW29782   0.243   1.634   1.899  0.3123  0.1749  0.2636
 7882SOL    HW129783   0.146   1.636   1.922  0.2988 -0.4503  0.2725
 7882SOL    HW229784   0.284   1.723   1.919 -0.8066  1.2651 -2.1173
 7883SOL     OW29785   4.838   7.340   4.053  0.6292  0.0771  0.3243
 7883SOL    HW129786   4.871   7.307   3.965  0.1987 -0.2773  0.2903
 7883SOL    HW229787   4.910   7.392   4.100  0.7047  0.6651 -0.4437
 7884SOL     OW29788   9.859   8.791   1.454 -0.0618  0.3575 -0.7110
 7884SOL    HW129789   9.826   8.700   1.428  0.5616  0.3831 -1.6000
 7884SOL    HW229790   9.804   8.825   1.530 -0.0642 -0.9234 -0.1202
 7885SOL     OW29791   3.884   4.227   0.534  0.1685 -0.3992 -0.1949
 7885SOL    HW129792   3.788   4.203   0.517  0.1071  0.2499 -0.7696
 7885SOL    HW229793   3.890   4.321   0.566  0.6164 -0.4222 -0.2115
 7886SOL     OW29794   0.348   2.091   0.438  0.0164 -1.0583 -0.2483
 7886SOL    HW129795   0.268   2.127   0.391  0.7204 -0.4531 -0.9810
 7886SOL    HW229796   0.408   2.045   0.373  1.1330  0.0231  0.0054
 7887SOL     OW29797   0.267   4.517   3.154  0.1015  0.3096  0.2143
 7887SOL    HW129798   0.277   4.616   3.158  1.2492  0.2111  0.0249
 7887SOL    HW229799   0.339   4.478   3.096 -0.2738 -0.6334  0.3662
 7888SOL     OW29800   4.946   2.378   0.650 -0.2316  0.4102  0.2206
 7888SOL    HW129801   4.925   2.289   0.608 -0.2261 -0.1679  1.4050
 7888SOL    HW229802   5.016   2.425   0.596  1.3428 -1.2617  0.7584
 7889SOL     OW29803   4.435   5.801   2.074  0.2437 -0.3992 -0.8298
 7889SOL    HW129804   4.454   5.865   2.149 -1.0000 -1.1734  0.1724
 7889SOL    HW229805   4.344   5.761   2.087 -0.0887 -0.3460 -2.9083
 7890SOL     OW29806   3.662   0.619   1.749  0.4575 -0.7422  0.5500
 7890SOL    HW129807   3.746   0.633   1.801  1.1675  2.4550 -1.3093
 7890SOL    HW229808   3.584   0.611   1.812  1.4594  1.6591  2.1640
 7891SOL     OW29809   5.090   1.719   2.572  0.6080  0.5454  0.3812
 7891SOL    HW129810   5.173   1.666   2.554 -1.1159 -1.7124 -1.3198
 7891SOL    HW229811   5.011   1.658   2.566 -1.2665  2.9206  0.6161
 7892SOL     OW29812   8.394   5.151   4.361 -0.2632 -0.1974  0.1362
 7892SOL    HW129813   8.397   5.217   4.437 -0.7474  0.6615 -0.5782
 7892SOL    HW229814   8.485   5.110   4.349 -0.1415 -0.2135  1.0643
 7893SOL     OW29815   2.576   7.943   2.167  0.3104  0.1661 -0.0079
 7893SOL    HW129816   2.634   7.990   2.235  0.7869  0.3425 -0.5260
 7893SOL    HW229817   2.483   7.937   2.201  0.4343  0.7278  0.4403
 7894SOL     OW29818   0.799   8.599   2.661  0.0807 -0.2753  0.5258
 7894SOL    HW129819   0.782   8.569   2.755 -0.3688 -0.5264  0.3642
 7894SOL    HW229820   0.801   8.698   2.657 -1.6824 -0.2348  0.4885
 7895SOL     OW29821   4.395   1.297   0.839  0.3734  0.1351  0.8421
 7895SOL    HW129822   4.327   1.319   0.769  1.5754  0.4113 -0.2716
 7895SOL    HW229823   4.482   1.276   0.794  0.7612 -1.2124  2.1832
 7896SOL     OW29824   6.446   0.304   0.853 -0.3068  0.4634 -0.8104
 7896SOL    HW129825   6.426   0.381   0.915 -1.4329  0.4320 -1.1117
 7896SOL    HW229826   6.545   0.292   0.845 -0.1062  2.2164 -1.1608
 7898SOL     OW29827   3.834   0.025   3.616 -0.0508  0.3297  0.1562
 7898SOL    HW129828   3.748  -0.017   3.589  0.5784 -0.0986 -1.1989
 7898SOL    HW229829   3.821   0.077   3.701 -1.8544  1.0272 -0.5284
 7899SOL     OW29830   5.122   1.319   0.466  0.3885 -0.2583  0.0334
 7899SOL    HW129831   5.086   1.232   0.430  0.1959  0.1388 -0.7365
 7899SOL    HW229832   5.154   1.375   0.390 -0.4096  0.7575  0.4449
 7900SOL     OW29833   4.754   9.902   1.296 -0.2312 -0.3004 -0.3335
 7900SOL    HW129834   4.785   9.931   1.206 -0.2997  2.8047  0.5908
 7900SOL    HW229835   4.831   9.903   1.360 -0.9113  1.2480  0.4938
 7904SOL     OW29836   3.091   9.995   1.127 -0.0301 -0.5178 -0.2228
 7904SOL    HW129837   3.110   9.969   1.032  0.0190  0.6123 -0.5249
 7904SOL    HW229838   3.042   9.921   1.172  0.7691 -1.4580 -0.8578
 7905SOL     OW29839   4.478   7.445   1.818  0.2188 -0.6311 -0.0086
 7905SOL    HW129840   4.391   7.487   1.795  0.6247 -0.1477 -0.6830
 7905SOL    HW229841   4.545   7.516   1.840  0.5359 -0.9846  0.1832
 7906SOL     OW29842   0.510   5.995   0.301  0.1702 -0.1793  0.7950
 7906SOL    HW129843   0.438   5.958   0.241 -0.2639 -1.6245  2.1715
 7906SOL    HW229844   0.538   6.085   0.268 -1.7157  0.0566 -0.2257
 7907SOL     OW29845   3.840   9.295   1.170 -0.4344  0.5653  0.5005
 7907SOL    HW129846   3.886   9.284   1.258 -0.7296 -0.1503  0.5657
 7907SOL    HW229847   3.863   9.218   1.110 -1.1556  0.4515  0.3614
 7908SOL     OW29848   4.230   1.008   2.677 -0.2861 -0.8489  0.1574
 7908SOL    HW129849   4.290   0.997   2.756  2.3522  2.2697 -1.2853
 7908SOL    HW229850   4.196   1.101   2.674 -1.8985 -1.4585 -1.3540
 7909SOL     OW29851   6.564   9.216   4.185 -0.0565 -0.2401 -0.3691
 7909SOL    HW129852   6.619   9.221   4.268 -2.3646  0.7919  1.1450
 7909SOL    HW229853   6.584   9.295   4.127 -1.2965  1.1936  1.0829
 7910SOL     OW29854   2.886   8.537   2.571 -0.0982 -0.2061 -0.4323
 7910SOL    HW129855   2.884   8.594   2.489 -0.8291 -0.0184 -0.2931
 7910SOL    HW229856   2.973   8.489   2.577  0.1743  0.2163 -1.0197
 7911SOL     OW29857   8.364   5.473   1.515  0.2346  0.0063  0.5493
 7911SOL    HW129858   8.287   5.529   1.486 -1.7778 -2.3925  1.1394
 7911SOL    HW229859   8.381   5.487   1.613  0.1777  0.0726  0.5497
 7912SOL     OW29860   8.864   2.415   0.980 -0.6391 -0.7964  0.4038
 7912SOL    HW129861   8.938   2.348   0.982 -1.8743 -2.2048  0.4133
 7912SOL    HW229862   8.818   2.411   0.891 -1.8230 -1.2358  1.0099
 7913SOL     OW29863   9.482   7.196   3.854  0.2449 -0.7432  0.1302
 7913SOL    HW129864   9.559   7.259   3.844  1.2873 -2.1726 -1.0621
 7913SOL    HW229865   9.494   7.119   3.791 -2.6623 -0.4930 -0.7960
 7914SOL     OW29866   4.570   8.006   3.583 -0.2855  0.2999  0.0748
 7914SOL    HW129867   4.482   7.959   3.588 -0.0044 -0.2843 -0.3409
 7914SOL    HW229868   4.587   8.035   3.489  1.0393 -1.7273 -0.3592
 7915SOL     OW29869   4.171   0.428   2.910  0.1575 -0.5229  0.2045
 7915SOL    HW129870   4.151   0.507   2.969  0.1364 -1.5055  1.5567
 7915SOL    HW229871   4.263   0.395   2.930 -0.3688 -1.7267  0.7275
 7916SOL     OW29872   1.540   0.247   2.434  0.2613  0.2900  0.3422
 7916SOL    HW129873   1.474   0.271   2.506 -0.3142 -1.4160  0.3989
 7916SOL    HW229874   1.621   0.206   2.477  0.4562  0.4264  0.1034
 7917SOL     OW29875   2.896   7.028   1.941  0.1309 -0.4662 -0.0721
 7917SOL    HW129876   2.967   7.025   1.871 -0.2601 -1.6901 -0.4451
 7917SOL    HW229877   2.813   7.068   1.903 -0.1477 -1.3245 -0.3872
 7919SOL     OW29878   5.171   4.417   0.064  0.3776 -0.0639  0.8053
 7919SOL    HW129879   5.101   4.477   0.025  0.8328 -0.0942 -0.0697
 7919SOL    HW229880   5.246   4.407  -0.001  1.1964 -0.0387  1.7284
 7920SOL     OW29881   0.978   6.931   1.873 -0.2630  0.1673  0.1199
 7920SOL    HW129882   0.892   6.884   1.852  0.0344  0.3399 -1.5600
 7920SOL    HW229883   1.048   6.904   1.807  1.1423 -0.3637  1.7854
 7921SOL     OW29884   6.765   0.103   0.637  0.3706  0.3408  0.2946
 7921SOL    HW129885   6.778   0.061   0.727 -0.2429 -0.9044 -0.1842
 7921SOL    HW229886   6.850   0.096   0.584  0.6380  0.7977  0.6585
 7923SOL     OW29887   3.332   9.499   1.793  0.9551  0.4097  0.0080
 7923SOL    HW129888   3.342   9.433   1.868 -0.6632 -1.4257 -1.3239
 7923SOL    HW229889   3.339   9.451   1.706 -2.5966  1.5517 -1.0107
 7924SOL     OW29890   8.381   6.457   0.251  0.3312  0.2657  0.6866
 7924SOL    HW129891   8.425   6.390   0.191 -2.6028 -1.1485  0.0306
 7924SOL    HW229892   8.344   6.411   0.331 -0.2125  1.3724  1.0726
 7925SOL     OW29893   1.372   3.213   4.140  0.0232  0.2705  0.0057
 7925SOL    HW129894   1.277   3.242   4.155 -0.0946 -0.2707  0.3488
 7925SOL    HW229895   1.373   3.133   4.080  0.0956 -1.1012  1.7829
 7926SOL     OW29896   4.017   5.986   1.998  0.2421  0.4951 -0.5826
 7926SOL    HW129897   4.023   5.886   2.003  0.3831  0.4769 -1.1241
 7926SOL    HW229898   3.948   6.018   2.063  0.0036  0.0257 -0.6019
 7927SOL     OW29899   9.658   2.728   1.950  0.7978  0.2843  0.2733
 7927SOL    HW129900   9.756   2.742   1.961  1.0090 -1.4189  0.6254
 7927SOL    HW229901   9.615   2.715   2.040  0.3228  0.5321  0.0867
 7929SOL     OW29902   8.333   9.244   2.991  0.3994 -0.2278  0.2425
 7929SOL    HW129903   8.388   9.238   2.908 -1.9039 -0.1737 -1.3364
 7929SOL    HW229904   8.298   9.154   3.014 -0.2911  0.0324  0.2166
 7930SOL     OW29905   4.805   2.486   3.008 -0.3964  0.0115 -0.3902
 7930SOL    HW129906   4.829   2.501   2.912 -0.7242 -1.4474 -0.7097
 7930SOL    HW229907   4.882   2.442   3.055 -0.9980 -1.1928 -0.5045
 7931SOL     OW29908   0.722   4.851   1.722  0.0780 -0.0851  0.1838
 7931SOL    HW129909   0.700   4.910   1.644  0.2165 -0.5787 -0.2291
 7931SOL    HW229910   0.685   4.760   1.706 -0.6424  0.0415  1.0846
 7932SOL     OW29911   7.203   1.095   2.539 -1.0294 -0.0727  0.1537
 7932SOL    HW129912   7.170   1.009   2.578 -1.2330 -0.0968 -0.0685
 7932SOL    HW229913   7.288   1.079   2.489 -0.7346 -0.0304  0.6384
 7933SOL     OW29914   7.813   5.567   2.993  0.1153 -0.2310  0.2362
 7933SOL    HW129915   7.771   5.631   2.929 -0.3254 -0.3892  0.3611
 7933SOL    HW229916   7.854   5.617   3.069 -1.3674 -0.1444  1.0130
 7937SOL     OW29917   1.499   1.641   2.155  0.1858  0.6155 -0.2977
 7937SOL    HW129918   1.579   1.691   2.187  0.0477  0.8513 -0.3196
 7937SOL    HW229919   1.461   1.687   2.075  0.0942  0.4420 -0.3536
 7938SOL     OW29920   9.071   8.773   3.928 -0.7815 -0.2944 -0.5091
 7938SOL    HW129921   9.094   8.680   3.957 -0.7456 -0.1212  0.0300
 7938SOL    HW229922   9.107   8.839   3.994  0.2601  0.1806 -1.5298
 7939SOL     OW29923   2.464   6.931   4.139 -0.2249  0.4348  0.2204
 7939SOL    HW129924   2.380   6.908   4.089 -0.6602  1.4161  0.4923
 7939SOL    HW229925   2.471   6.873   4.220  0.8763 -1.6980 -1.3684
 7941SOL     OW29926   0.620   1.167   0.804 -0.0661 -0.0868 -0.4429
 7941SOL    HW129927   0.598   1.113   0.722 -0.7718  1.8350 -1.5577
 7941SOL    HW229928   0.641   1.105   0.880 -0.3612 -1.9155 -1.8040
 7943SOL     OW29929   4.544   3.739   2.711 -0.4874 -0.3839 -0.0550
 7943SOL    HW129930   4.471   3.683   2.673 -0.5145  0.1979 -0.8790
 7943SOL    HW229931   4.598   3.779   2.636  0.8233 -1.0129  0.5432
 7944SOL     OW29932   3.294   3.194   2.933  0.0605  0.0630  0.1443
 7944SOL    HW129933   3.372   3.156   2.983 -0.3045  0.5346  1.0845
 7944SOL    HW229934   3.229   3.234   2.998 -1.3506 -1.0113 -0.5857
 7945SOL     OW29935   5.217   7.342   2.442 -0.2986  0.1052  0.4409
 7945SOL    HW129936   5.123   7.353   2.475 -0.6637  0.8423 -0.8149
 7945SOL    HW229937   5.216   7.329   2.343  0.9528  0.4919  0.3689
 7947SOL     OW29938   9.431   4.423   4.186  0.2323  0.1906 -0.4286
 7947SOL    HW129939   9.455   4.408   4.089 -1.6458 -0.5228 -0.7982
 7947SOL    HW229940   9.335   4.398   4.201  1.0882 -1.8552  2.0929
 7948SOL     OW29941   9.552   6.746   0.395  0.1752 -0.1510  0.1052
 7948SOL    HW129942   9.629   6.684   0.383 -0.0233 -0.1611 -1.1079
 7948SOL    HW229943   9.473   6.712   0.345 -0.1155  0.7572 -0.0601
 7949SOL     OW29944   1.620   3.709   3.405 -0.4064 -0.3902 -0.6586
 7949SOL    HW129945   1.696   3.727   3.343  1.1411 -0.3779  1.1964
 7949SOL    HW229946   1.548   3.776   3.389 -0.7988 -1.4005 -3.5704
 7950SOL     OW29947   1.520   9.680   3.411  1.3895 -0.2251 -0.2264
 7950SOL    HW129948   1.514   9.765   3.359  2.2350  0.6960  1.1495
 7950SOL    HW229949   1.430   9.637   3.414  0.2483  2.1750  1.6240
 7952SOL     OW29950   0.749   5.991   0.441  0.3664 -0.2704  0.2108
 7952SOL    HW129951   0.816   5.934   0.394  0.5155  0.5641 -0.5925
 7952SOL    HW229952   0.661   5.985   0.394  0.1376 -0.5354  0.6572
 7953SOL     OW29953   0.998   1.074   0.984 -0.3480  0.2837  0.2212
 7953SOL    HW129954   1.066   1.063   1.057  2.0092  3.4813 -1.3374
 7953SOL    HW229955   0.917   1.118   1.021  0.0752  0.2040  1.2845
 7954SOL     OW29956   0.923   4.347   0.067  0.7648 -0.1305 -0.3736
 7954SOL    HW129957   0.916   4.311   0.160 -0.4439  0.3445 -0.2767
 7954SOL    HW229958   0.935   4.446   0.070 -0.0046 -0.0253 -0.7408
 7955SOL     OW29959   1.679   1.089   3.272  0.4330 -0.3036  0.2472
 7955SOL    HW129960   1.742   1.166   3.283 -0.0848  0.1961 -0.2411
 7955SOL    HW229961   1.653   1.054   3.362  1.1858 -0.3306  0.4557
 7956SOL     OW29962   4.721   9.953   3.851  0.0233 -0.2986 -0.2998
 7956SOL    HW129963   4.662   9.909   3.784 -0.9259  0.3000  0.1393
 7956SOL    HW229964   4.740   9.889   3.926 -2.3558  0.4075  0.9543
 7958SOL     OW29965   8.952   3.184   1.173 -0.3730  0.0580  0.2648
 7958SOL    HW129966   8.934   3.280   1.153  2.1833  0.7172  0.9865
 7958SOL    HW229967   8.955   3.171   1.272  2.5256 -0.0950  0.1888
 7959SOL     OW29968   3.294   3.327   0.319 -0.3005  0.3967 -0.0642
 7959SOL    HW129969   3.263   3.407   0.269 -1.4378 -0.9247 -1.5236
 7959SOL    HW229970   3.329   3.355   0.409  2.6030  2.8833 -1.9067
 7960SOL     OW29971   2.176   8.730   3.308 -0.1665 -0.4750 -0.5907
 7960SOL    HW129972   2.243   8.729   3.234 -2.1588  0.0918 -2.4257
 7960SOL    HW229973   2.101   8.793   3.286 -2.2675 -2.4851  0.5347
 7961SOL     OW29974   0.754   5.978   2.464  0.2327 -0.2082  0.1091
 7961SOL    HW129975   0.768   6.022   2.376  0.8710  0.5468  0.5824
 7961SOL    HW229976   0.841   5.946   2.501  0.1677  0.7087  1.0961
 7962SOL     OW29977   1.264   9.572   3.446 -0.2037  0.1540  0.3485
 7962SOL    HW129978   1.255   9.478   3.413 -0.4038 -0.0497  0.9872
 7962SOL    HW229979   1.187   9.595   3.505  0.0090  0.6118  0.4529
 7963SOL     OW29980   0.406   9.525   0.782 -0.3863 -0.3744 -0.2160
 7963SOL    HW129981   0.420   9.618   0.813 -1.5195 -0.3780  0.3080
 7963SOL    HW229982   0.404   9.523   0.682 -2.9488  0.5648 -0.2164
 7965SOL     OW29983   3.781   7.415   4.397 -0.3360  0.2809 -0.1630
 7965SOL    HW129984   3.831   7.409   4.310  0.1815 -0.5016  0.1870
 7965SOL    HW229985   3.837   7.376   4.470 -0.1481  2.2698  0.8007
 7966SOL     OW29986   8.496   2.109   4.362 -0.7706  0.1500  0.6429
 7966SOL    HW129987   8.573   2.131   4.302 -0.2554 -3.6762 -0.2133
 7966SOL    HW229988   8.411   2.137   4.317 -0.3077 -1.5887 -1.4115
 7967SOL     OW29989   1.248   6.043   2.450  0.6469 -0.2602  0.0420
 7967SOL    HW129990   1.262   5.947   2.426  0.7491  0.1527 -1.6209
 7967SOL    HW229991   1.332   6.080   2.492  0.8865 -0.6780 -0.0683
 7969SOL     OW29992   2.860   7.583   2.422  0.1894  0.3221  0.2215
 7969SOL    HW129993   2.896   7.554   2.511  3.0986 -1.5877 -1.5053
 7969SOL    HW229994   2.783   7.525   2.396  1.5866 -1.4089 -0.0819
 7970SOL     OW29995   2.877   0.463   0.568 -0.2660  0.0299 -0.1750
 7970SOL    HW129996   2.834   0.518   0.640  1.4208  0.0519  0.8586
 7970SOL    HW229997   2.904   0.374   0.607  1.1115  0.2366 -0.6587
 7972SOL     OW29998   5.693   9.138   1.777  0.5515 -0.1631  0.1643
 7972SOL    HW129999   5.740   9.104   1.858 -0.0317  0.2811  0.6963
 7972SOL    HW230000   5.705   9.237   1.770 -0.4282 -0.0145  0.4011
 7973SOL     OW30001   4.580   7.021   1.623 -0.3701 -0.3853 -0.4988
 7973SOL    HW130002   4.556   6.978   1.536 -0.8225  0.1855 -0.6549
 7973SOL    HW230003   4.546   7.114   1.625  0.3112 -0.1404 -0.0124
 7974SOL     OW30004   9.587   4.583   2.898  0.6840  0.1295  0.3082
 7974SOL    HW130005   9.682   4.588   2.867  0.4506 -1.7312 -0.7492
 7974SOL    HW230006   9.575   4.506   2.960 -0.4179 -0.4680 -0.6237
 7975SOL     OW30007   9.183   8.420   2.680  0.2957  0.7013  0.1086
 7975SOL    HW130008   9.101   8.386   2.633 -0.4815  2.7885 -0.0789
 7975SOL    HW230009   9.262   8.409   2.619  0.0010 -0.4724 -0.0676
 7976SOL     OW30010   8.227   9.354   0.998  0.6009  0.4768  0.3995
 7976SOL    HW130011   8.311   9.371   0.946  0.8366  0.1371  0.6656
 7976SOL    HW230012   8.164   9.299   0.944  1.3596 -0.9564  0.9400
 7977SOL     OW30013   8.593   9.754   2.181 -0.0662  0.5623  0.2421
 7977SOL    HW130014   8.601   9.784   2.086 -0.8921  1.9946  0.6066
 7977SOL    HW230015   8.676   9.704   2.207 -0.4761 -1.1569 -1.6743
 7978SOL     OW30016   5.543   8.937   3.017 -0.2178  0.0804  0.1905
 7978SOL    HW130017   5.597   8.854   3.031  0.9827  1.1095  1.8063
 7978SOL    HW230018   5.508   8.939   2.923  2.3918 -0.7098 -0.8320
 7979SOL     OW30019   2.066   4.291   4.391  0.0906 -0.5479  0.1064
 7979SOL    HW130020   2.002   4.359   4.426  0.9804  0.7376 -0.7239
 7979SOL    HW230021   2.132   4.335   4.331 -0.2828 -2.3859 -1.7376
 7982SOL     OW30022   1.600   5.547   0.640  0.3793 -0.3755 -0.4557
 7982SOL    HW130023   1.686   5.529   0.594  0.7321  1.4743 -0.5882
 7982SOL    HW230024   1.556   5.627   0.598  1.4164  2.2966  3.2758
 7983SOL     OW30025   2.564   0.680   2.851 -0.9092 -0.1873 -0.9585
 7983SOL    HW130026   2.553   0.617   2.927 -1.4849  0.9558 -0.0709
 7983SOL    HW230027   2.661   0.693   2.832 -0.7499 -0.1151 -0.1088
 7984SOL     OW30028   7.875   3.605   1.629 -0.3376 -0.2104  0.4040
 7984SOL    HW130029   7.891   3.548   1.548  1.5622  1.0059 -0.0925
 7984SOL    HW230030   7.923   3.566   1.707  1.8263  1.2316 -0.1701
 7985SOL     OW30031   6.585   8.307   4.128  0.1374 -0.1874  0.1493
 7985SOL    HW130032   6.551   8.393   4.090 -2.0796 -0.2773  1.8478
 7985SOL    HW230033   6.567   8.303   4.226 -0.6901 -2.9749 -0.0489
 7987SOL     OW30034   5.368   8.779   3.446 -0.1641 -0.0329 -0.1133
 7987SOL    HW130035   5.276   8.749   3.419 -0.4545  1.4412 -0.8532
 7987SOL    HW230036   5.379   8.876   3.422  1.4917 -0.1283  0.2235
 7989SOL     OW30037   6.802   8.392   1.937 -0.1301 -0.8226  0.2172
 7989SOL    HW130038   6.816   8.436   1.848  1.1633 -2.3968 -0.3766
 7989SOL    HW230039   6.806   8.461   2.009  1.9688  0.0359 -0.6950
 7990SOL     OW30040   9.672   5.585   4.284  0.0073  0.1245 -0.6872
 7990SOL    HW130041   9.603   5.545   4.344  0.5980 -3.0682 -2.0608
 7990SOL    HW230042   9.760   5.540   4.300  0.7501  1.0239 -2.1305
 7991SOL     OW30043   7.044   0.353   1.700 -0.1427  0.5722 -0.2382
 7991SOL    HW130044   7.022   0.449   1.686 -1.1764  0.5281  1.0451
 7991SOL    HW230045   6.982   0.296   1.646 -0.7475  0.5664  0.4632
 7994SOL     OW30046   3.543   7.167   4.327  0.5417  0.1788  0.2229
 7994SOL    HW130047   3.497   7.255   4.316  1.4017  0.6267  0.1359
 7994SOL    HW230048   3.486   7.106   4.381 -0.5494  0.4171 -0.6292
 7995SOL     OW30049   9.973   7.772   2.829 -0.1844  0.1067  0.2313
 7995SOL    HW130050   9.976   7.816   2.739  1.5266  1.6342  1.0154
 7995SOL    HW230051   9.900   7.814   2.883  0.9459  1.4936  0.7090
 7996SOL     OW30052   5.754   7.493   3.804 -0.5503  0.4017 -0.4781
 7996SOL    HW130053   5.813   7.550   3.746 -0.7162 -0.8712 -1.9263
 7996SOL    HW230054   5.748   7.401   3.766 -4.2651  0.7466 -0.9862
 7997SOL     OW30055   2.922   0.427   3.114 -0.1630 -0.0014 -0.4318
 7997SOL    HW130056   2.928   0.522   3.082  0.0899 -0.5651 -2.1344
 7997SOL    HW230057   3.007   0.379   3.092 -0.5670 -0.8150 -0.2384
 7999SOL     OW30058   1.164   3.532   2.411 -0.0240  0.1842 -0.4270
 7999SOL    HW130059   1.102   3.610   2.396  0.1593 -0.0853 -2.8152
 7999SOL    HW230060   1.223   3.551   2.490 -1.5108  1.4811  0.4096
 8000SOL     OW30061   8.078   4.228   3.994 -0.1160  0.3774 -0.5332
 8000SOL    HW130062   8.069   4.137   3.953  0.1938  0.7463 -1.4528
 8000SOL    HW230063   8.170   4.263   3.977  0.3612  0.1177  1.4059
 8001SOL     OW30064   4.781   0.397   3.790  0.0646  0.2760 -0.4709
 8001SOL    HW130065   4.763   0.345   3.874 -0.9932  0.6336 -0.4634
 8001SOL    HW230066   4.880   0.408   3.778  0.2359 -0.0536  0.5588
 8002SOL     OW30067   8.148   7.311   2.388  0.0292  0.1405  0.1281
 8002SOL    HW130068   8.207   7.307   2.308  0.5110 -0.2649  0.5007
 8002SOL    HW230069   8.114   7.219   2.409 -0.7329  0.3715 -0.0841
 8003SOL     OW30070   0.671   3.848   2.856 -0.5083  0.3150  0.0464
 8003SOL    HW130071   0.743   3.909   2.821 -0.0824  0.2885  0.8460
 8003SOL    HW230072   0.698   3.814   2.946  0.1525 -2.5659 -1.1765
 8004SOL     OW30073   8.564   1.300   3.262  0.3940 -0.2573  0.2899
 8004SOL    HW130074   8.470   1.334   3.254 -0.0339 -1.1413  1.5521
 8004SOL    HW230075   8.619   1.368   3.310 -0.0315 -0.5367  1.1788
 8005SOL     OW30076   1.232   0.477   3.542  0.5442 -0.7406 -0.1968
 8005SOL    HW130077   1.303   0.452   3.608 -0.1866 -1.0864  0.4700
 8005SOL    HW230078   1.261   0.558   3.491  0.9364 -0.2010  0.8600
 8006SOL     OW30079   9.180   2.508   1.463 -0.4355 -0.1305 -0.5507
 8006SOL    HW130080   9.263   2.563   1.449 -0.1546 -0.9429 -2.3306
 8006SOL    HW230081   9.195   2.444   1.539 -0.6204  1.9430  1.2576
 8008SOL     OW30082   1.037   9.556   2.335 -0.2267 -0.3737 -0.4763
 8008SOL    HW130083   1.065   9.472   2.382  3.4557  0.0854 -1.6921
 8008SOL    HW230084   1.004   9.622   2.403 -1.5800 -2.1789  0.6619
 8009SOL     OW30085   3.422   2.957   2.231  0.0804  0.0216  0.0996
 8009SOL    HW130086   3.346   2.973   2.294 -0.4461  1.5609 -0.8946
 8009SOL    HW230087   3.390   2.961   2.137  0.7155 -3.0922 -0.3022
 8010SOL     OW30088   0.830   2.486   4.100 -0.1317  0.4061 -0.6430
 8010SOL    HW130089   0.897   2.498   4.027  1.2983  1.1594  0.7596
 8010SOL    HW230090   0.833   2.392   4.133  2.4462  1.2042  1.4960
 8011SOL     OW30091   8.728   7.433   2.267  0.0204  0.5750 -0.2337
 8011SOL    HW130092   8.728   7.446   2.168  1.2549 -1.8191 -0.5917
 8011SOL    HW230093   8.797   7.366   2.292 -1.8685 -0.6364  1.9900
 8013SOL     OW30094   1.993   5.174   3.987  0.5026  0.1425 -0.2189
 8013SOL    HW130095   1.947   5.098   4.033  0.9671 -1.2172 -1.9523
 8013SOL    HW230096   2.091   5.170   4.006  0.6690 -0.3094 -1.1061
 8014SOL     OW30097   3.186   8.239   0.426 -0.1191  0.5227  0.3058
 8014SOL    HW130098   3.275   8.251   0.470  0.6084 -2.6727 -0.2243
 8014SOL    HW230099   3.170   8.315   0.363  2.7633  0.4885 -0.5358
 8015SOL     OW30100   1.562   1.971   0.357 -0.2884 -0.0397 -0.0136
 8015SOL    HW130101   1.543   1.880   0.319 -0.1215 -0.7846  1.6415
 8015SOL    HW230102   1.658   1.975   0.387  0.5086  1.6028 -2.5387
 8016SOL     OW30103   0.360   5.350   2.825 -0.2490  0.0021  0.3162
 8016SOL    HW130104   0.326   5.291   2.899  2.3508 -1.0779  0.6880
 8016SOL    HW230105   0.444   5.312   2.787  0.5697  2.5791 -0.5969
 8017SOL     OW30106   4.212   1.652   2.591  0.1037 -0.5856  0.4091
 8017SOL    HW130107   4.218   1.659   2.491 -1.7008 -2.9020  0.0731
 8017SOL    HW230108   4.304   1.652   2.630  0.9918 -2.8179 -1.5428
 8018SOL     OW30109   1.714   1.715   3.072 -0.5527 -0.5642  0.1812
 8018SOL    HW130110   1.686   1.619   3.066  1.2168 -1.0641 -0.3102
 8018SOL    HW230111   1.719   1.754   2.980 -0.1189 -0.3419  0.3001
 8019SOL     OW30112   0.494   4.539   0.485 -0.1902 -0.0919  0.1252
 8019SOL    HW130113   0.526   4.466   0.425 -0.9364 -0.0691 -0.3014
 8019SOL    HW230114   0.559   4.550   0.561  0.3721 -0.6134 -0.2704
 8020SOL     OW30115   3.807   1.133   1.292 -0.4934 -0.6121 -0.4253
 8020SOL    HW130116   3.788   1.053   1.234 -0.6962 -0.7978 -0.0999
 8020SOL    HW230117   3.799   1.108   1.388  1.9490 -0.8407 -0.2616
 8021SOL     OW30118   8.298   3.513   3.126  0.1257 -0.5205 -0.1918
 8021SOL    HW130119   8.259   3.427   3.095  0.3239 -0.7415  0.1734
 8021SOL    HW230120   8.357   3.497   3.204 -0.6515  0.0931  0.5283
 8022SOL     OW30121   6.471   0.516   1.066 -0.2571  0.0049 -0.0811
 8022SOL    HW130122   6.437   0.441   1.122  0.9544 -0.0955  0.5463
 8022SOL    HW230123   6.422   0.600   1.088  0.0895 -0.0737  1.0126
 8024SOL     OW30124   2.205   7.310   0.554 -0.4250 -0.2106  0.8102
 8024SOL    HW130125   2.189   7.263   0.640 -1.2584  1.1690  1.4285
 8024SOL    HW230126   2.219   7.408   0.571  0.0060 -0.0139 -0.5561
 8025SOL     OW30127   2.171   3.579   4.024  0.1281  0.5476 -0.5876
 8025SOL    HW130128   2.205   3.513   3.957 -0.8696  1.3190 -1.8728
 8025SOL    HW230129   2.145   3.664   3.977  1.2776  1.8243  1.0123
 8026SOL     OW30130   1.872   2.289   0.330 -0.1786  0.8190 -0.6928
 8026SOL    HW130131   1.954   2.244   0.364  0.4497  0.9056 -2.0482
 8026SOL    HW230132   1.812   2.313   0.406 -0.5784 -2.3871  0.0466
 8028SOL     OW30133   3.364   5.440   2.256 -0.0599 -0.0573 -0.5218
 8028SOL    HW130134   3.307   5.479   2.183  0.6598 -0.8126 -1.4953
 8028SOL    HW230135   3.447   5.403   2.217  1.1698  1.1150  0.9114
 8029SOL     OW30136   5.153   7.846   3.553  0.0160 -0.3775 -0.2411
 8029SOL    HW130137   5.156   7.920   3.621  0.7119  0.7147 -1.4298
 8029SOL    HW230138   5.214   7.868   3.477 -1.6517 -0.9911 -1.8020
 8031SOL     OW30139   2.514   5.548   1.161 -0.4343 -0.0161 -0.0422
 8031SOL    HW130140   2.524   5.449   1.162 -0.3512 -0.0260 -1.2273
 8031SOL    HW230141   2.525   5.582   1.067  2.3470  1.3969  0.7461
 8032SOL     OW30142   3.762   7.421   1.641  0.5057  0.2334 -0.1197
 8032SOL    HW130143   3.860   7.399   1.640  0.4661  0.0609 -1.7864
 8032SOL    HW230144   3.738   7.468   1.555 -1.1560 -0.9561 -0.3157
 8033SOL     OW30145   0.055   3.182   0.422 -0.4456 -0.0883  0.0095
 8033SOL    HW130146  -0.008   3.259   0.423  0.5740  0.7584  1.3210
 8033SOL    HW230147   0.123   3.194   0.351 -0.9576 -0.3436 -0.5273
 8035SOL     OW30148   1.586   4.094   3.407 -0.2334 -0.3309 -0.0992
 8035SOL    HW130149   1.525   4.108   3.328 -1.6676  0.4074  1.1041
 8035SOL    HW230150   1.566   4.006   3.449  1.0200 -1.0435 -0.9534
 8036SOL     OW30151   2.558   3.906   3.450  0.5571  0.5428 -0.4627
 8036SOL    HW130152   2.541   3.977   3.382  1.1018  0.3769 -0.7727
 8036SOL    HW230153   2.525   3.936   3.539 -0.3928  0.6574 -0.8528
 8037SOL     OW30154   9.745   5.652   3.340  0.0249 -0.5304  0.3270
 8037SOL    HW130155   9.751   5.646   3.439  1.3391  1.3094  0.3888
 8037SOL    HW230156   9.830   5.691   3.304 -0.6443 -0.6924 -1.4611
 8038SOL     OW30157   1.746   8.110   4.421 -0.1396  0.3661 -0.5859
 8038SOL    HW130158   1.810   8.187   4.430  2.0328 -1.4058 -0.3706
 8038SOL    HW230159   1.680   8.112   4.496  1.2833  0.7815  0.6824
 8039SOL     OW30160   8.562   4.753   1.575 -0.1327  0.7781 -0.4618
 8039SOL    HW130161   8.559   4.700   1.490 -1.1829  2.2139 -1.3399
 8039SOL    HW230162   8.654   4.747   1.615  0.1589 -0.5037 -1.3040
 8040SOL     OW30163   6.575   1.992   2.902  0.2222  0.3389 -0.0157
 8040SOL    HW130164   6.596   1.905   2.945  0.7063 -0.4596 -1.8297
 8040SOL    HW230165   6.538   1.977   2.811  1.8140  2.0369 -0.9904
 8041SOL     OW30166   8.154   6.506   2.920  0.0469 -0.2205 -0.1277
 8041SOL    HW130167   8.109   6.428   2.963 -0.0314  0.1720  0.5142
 8041SOL    HW230168   8.233   6.534   2.976  0.1484  0.0752 -0.4176
 8043SOL     OW30169   7.027   9.573   2.788  0.0397 -0.4247  0.0411
 8043SOL    HW130170   7.020   9.553   2.690 -0.0571 -0.1631 -0.0053
 8043SOL    HW230171   7.074   9.661   2.801  0.4619 -0.6796  0.2446
 8044SOL     OW30172   1.933   3.918   2.566 -0.2568 -0.5799  0.1016
 8044SOL    HW130173   1.912   3.856   2.642 -1.2721  1.0874  1.2424
 8044SOL    HW230174   1.956   4.008   2.603 -1.0299  0.3311 -1.5940
 8046SOL     OW30175   7.428   3.427   0.226  0.0976 -0.8966 -0.0068
 8046SOL    HW130176   7.469   3.424   0.317 -0.1825  0.1169  0.1626
 8046SOL    HW230177   7.405   3.334   0.196  3.3236 -1.5916 -0.4937
 8047SOL     OW30178   7.806   7.586   1.972  0.2532  0.3382 -0.3267
 8047SOL    HW130179   7.831   7.495   2.004 -0.7442 -0.0855 -0.7419
 8047SOL    HW230180   7.847   7.602   1.882  0.8725  0.5152 -0.0189
 8048SOL     OW30181   1.007   8.158   2.294 -0.2797 -0.1208  0.7285
 8048SOL    HW130182   1.034   8.079   2.348 -1.2268 -1.0514 -0.1537
 8048SOL    HW230183   1.086   8.217   2.280  0.1746 -0.3107  2.3644
 8049SOL     OW30184   9.854   8.406   2.152 -0.1167  0.4471 -0.7267
 8049SOL    HW130185   9.802   8.360   2.080  0.5619 -1.2767 -0.1388
 8049SOL    HW230186   9.865   8.344   2.230  1.7614  1.2471 -0.3385
 8050SOL     OW30187   8.565   9.603   0.066  0.3784 -0.2309  0.8869
 8050SOL    HW130188   8.492   9.620  -0.001  0.1551 -0.8397  0.9645
 8050SOL    HW230189   8.653   9.628   0.027  0.1473  0.3223  0.7168
 8052SOL     OW30190   5.570   7.866   2.342  0.2995 -0.2342  0.3629
 8052SOL    HW130191   5.585   7.777   2.300  1.4004 -0.8408  2.0244
 8052SOL    HW230192   5.648   7.890   2.400 -0.6228  1.1616  1.0648
 8055SOL     OW30193   2.221   8.317   1.936  0.3443 -0.0976  0.9045
 8055SOL    HW130194   2.133   8.362   1.944  0.2008 -0.3429  0.7190
 8055SOL    HW230195   2.214   8.223   1.969  0.5058 -0.1589  0.7660
 8056SOL     OW30196   9.596   1.078   1.535 -0.6078  0.0056  0.0435
 8056SOL    HW130197   9.555   1.094   1.624 -0.7187  0.5458 -0.1046
 8056SOL    HW230198   9.543   1.010   1.485 -0.7881  0.0204  0.2173
 8058SOL     OW30199   3.279   8.641   1.798  0.0471 -0.5323  0.2923
 8058SOL    HW130200   3.312   8.680   1.712 -1.0473  0.3715  0.2668
 8058SOL    HW230201   3.357   8.613   1.853  0.7502 -1.6583 -1.2292
 8059SOL     OW30202   4.481   4.040   1.551  0.4879 -0.5054  0.0096
 8059SOL    HW130203   4.562   4.079   1.508  0.8323 -0.4906  0.6582
 8059SOL    HW230204   4.449   3.962   1.498  2.6957 -2.3778  1.3428
 8060SOL     OW30205   0.327   9.214   0.755 -0.0654 -0.2675 -0.1698
 8060SOL    HW130206   0.359   9.309   0.750 -2.0463  0.5868  1.9506
 8060SOL    HW230207   0.338   9.180   0.849  0.9196 -2.2580 -0.9909
 8061SOL     OW30208   2.330   7.406   2.976  0.1901 -0.2456 -0.8651
 8061SOL    HW130209   2.372   7.345   2.908  2.3957  0.1763  0.0615
 8061SOL    HW230210   2.285   7.351   3.046 -1.1826 -0.7086 -2.0864
 8062SOL     OW30211   8.557   5.105   3.926  0.5091  0.9494  0.2460
 8062SOL    HW130212   8.511   5.053   3.998  1.7284  0.0446  0.3964
 8062SOL    HW230213   8.563   5.201   3.953 -2.1120  1.2828 -0.2121
 8063SOL     OW30214   1.854   4.058   1.376 -0.1830 -0.5171 -0.1135
 8063SOL    HW130215   1.881   3.999   1.300  2.3586 -0.2825  0.5586
 8063SOL    HW230216   1.859   4.154   1.348 -0.2716 -0.4690  0.0337
 8064SOL     OW30217   6.481   0.216   3.372 -0.3753  0.0505 -0.0314
 8064SOL    HW130218   6.477   0.164   3.287 -0.0987 -1.3923  0.8174
 8064SOL    HW230219   6.491   0.153   3.450  2.5057  1.4486  0.8217
 8065SOL     OW30220   7.251   7.926   1.917  0.4373 -0.0110 -0.0428
 8065SOL    HW130221   7.334   7.980   1.899  0.1926  0.7884  1.1502
 8065SOL    HW230222   7.174   7.988   1.932  0.2160 -0.6637  1.6489
 8067SOL     OW30223   8.984   7.984   3.477 -0.2104 -0.5236  0.1876
 8067SOL    HW130224   9.029   7.920   3.540  0.2837  0.6406  1.0365
 8067SOL    HW230225   9.035   7.986   3.391 -0.9389 -2.1885 -0.3022
 8068SOL     OW30226   9.563   7.244   1.766  0.1771 -0.1307  0.2949
 8068SOL    HW130227   9.614   7.188   1.831 -2.2428 -1.2890  1.2803
 8068SOL    HW230228   9.479   7.196   1.739  0.4886  0.9183 -2.6770
 8070SOL     OW30229   0.852   5.389   2.674  0.2178  0.0348 -0.0459
 8070SOL    HW130230   0.867   5.483   2.643  0.9101 -0.0100  0.1351
 8070SOL    HW230231   0.875   5.325   2.600 -2.1351  0.0684 -0.8310
 8071SOL     OW30232   8.951   3.936   0.432  0.5286 -0.1208 -0.0628
 8071SOL    HW130233   8.952   4.032   0.461  0.0808  0.0216 -0.5080
 8071SOL    HW230234   8.892   3.883   0.494 -0.6121  0.2255 -0.8309
 8072SOL     OW30235   8.968   3.425   0.055 -0.4873 -0.0395 -0.3936
 8072SOL    HW130236   8.906   3.347   0.057 -0.4253 -0.0865 -0.2648
 8072SOL    HW230237   8.946   3.486   0.132  1.1118 -1.2036  1.0298
 8073SOL     OW30238   8.388   7.211   3.894 -0.3286  0.4723  0.3154
 8073SOL    HW130239   8.413   7.181   3.986  0.0037 -0.3409 -0.0368
 8073SOL    HW230240   8.311   7.275   3.900 -1.1083 -0.5216  1.0645
 8074SOL     OW30241   9.025   2.933   2.104 -1.0941  0.3172 -0.1208
 8074SOL    HW130242   9.123   2.940   2.090 -1.0041 -0.5014  0.1131
 8074SOL    HW230243   9.003   2.950   2.200 -1.0444 -0.8679  0.1039
 8075SOL     OW30244   9.169   9.075   1.027  0.7156  0.0583  0.0690
 8075SOL    HW130245   9.136   8.981   1.040  0.5511  0.3159  1.5763
 8075SOL    HW230246   9.147   9.130   1.108 -0.9624  1.9233 -1.6250
 8076SOL     OW30247   1.286   7.013   1.212 -0.0192 -0.2894  0.2941
 8076SOL    HW130248   1.305   6.915   1.213 -1.4469 -0.5732  0.4597
 8076SOL    HW230249   1.202   7.030   1.160  0.5790  0.9173 -0.3089
 8077SOL     OW30250   0.566   5.519   1.125  0.6514  0.2211 -0.1212
 8077SOL    HW130251   0.529   5.548   1.037  0.9917  0.6275 -0.1318
 8077SOL    HW230252   0.494   5.526   1.195  0.8967  1.6987 -0.0004
 8079SOL     OW30253   4.240   8.393   0.436  0.1040  0.0906  0.6175
 8079SOL    HW130254   4.311   8.344   0.488 -0.1162 -0.3025  0.5510
 8079SOL    HW230255   4.150   8.354   0.457  0.0299 -0.1760 -0.1787
 8080SOL     OW30256   3.629   7.636   3.722 -0.0643 -0.3879  0.0403
 8080SOL    HW130257   3.613   7.682   3.635  1.5462  0.1073 -0.0088
 8080SOL    HW230258   3.577   7.681   3.794 -3.1363 -2.1137 -1.0002
 8083SOL     OW30259   1.061   8.397   2.826  0.0317 -0.2459 -0.3752
 8083SOL    HW130260   1.122   8.421   2.901 -1.8559  2.3581  0.4198
 8083SOL    HW230261   0.971   8.439   2.842 -1.2069 -1.8858 -2.7604
 8084SOL     OW30262   9.755   5.845   3.635  0.3625  0.5500  0.4579
 8084SOL    HW130263   9.744   5.760   3.688  1.6363 -0.7914 -1.3836
 8084SOL    HW230264   9.852   5.864   3.623  0.1586 -0.5838 -3.5543
 8085SOL     OW30265   4.802   8.354   1.725 -0.6709  0.4320 -0.0383
 8085SOL    HW130266   4.846   8.415   1.790 -1.3818  0.1217  0.7446
 8085SOL    HW230267   4.754   8.408   1.656  0.5480  0.7635 -0.6398
 8086SOL     OW30268   1.167   8.949   2.931  0.1851  0.1691 -0.1319
 8086SOL    HW130269   1.198   8.946   2.836 -2.2062  1.4073 -0.9856
 8086SOL    HW230270   1.167   9.044   2.964  1.2512 -0.2749  1.2125
 8087SOL     OW30271   5.433   6.848   2.062 -0.0475 -0.4018  0.2949
 8087SOL    HW130272   5.348   6.850   2.009  0.0400  4.4175  0.0273
 8087SOL    HW230273   5.413   6.831   2.158 -1.1975 -0.6199  0.0166
 8088SOL     OW30274   3.233   6.194   2.517 -0.4849 -0.2233 -0.5736
 8088SOL    HW130275   3.282   6.254   2.454 -0.0588 -0.9017 -0.8844
 8088SOL    HW230276   3.135   6.198   2.496 -0.3335 -0.5253 -1.3414
 8089SOL     OW30277   8.651   7.797   1.702  0.3577 -0.2132  0.6708
 8089SOL    HW130278   8.732   7.855   1.690  0.8262 -0.7662  1.1604
 8089SOL    HW230279   8.637   7.743   1.619  1.2065 -1.0147  1.0444
 8090SOL     OW30280   7.638   3.231   1.394  0.1303  0.0321  0.2069
 8090SOL    HW130281   7.715   3.173   1.370 -0.8892 -1.2549 -0.0140
 8090SOL    HW230282   7.559   3.174   1.418 -2.0234  1.2320 -3.5471
 8091SOL     OW30283   0.062   9.701   3.851 -0.0184  0.3421  0.4211
 8091SOL    HW130284   0.099   9.790   3.824 -0.4438  0.1919 -0.7092
 8091SOL    HW230285   0.136   9.638   3.869  0.2941  0.4237 -0.5303
 8092SOL     OW30286   6.798   8.761   3.282  0.3165 -0.8746 -0.0302
 8092SOL    HW130287   6.854   8.838   3.312 -0.2678 -0.9612  1.3042
 8092SOL    HW230288   6.857   8.683   3.261  0.6632 -1.1844  2.0336
 8093SOL     OW30289   0.632   4.556   0.740 -0.5937  0.0463  0.0635
 8093SOL    HW130290   0.699   4.570   0.813 -0.1477 -2.0886  0.1048
 8093SOL    HW230291   0.546   4.601   0.763  0.2114  1.1390  0.9299
 8094SOL     OW30292   2.313   5.769   2.689 -0.1710  0.5051  0.2522
 8094SOL    HW130293   2.385   5.830   2.658  1.4334 -0.4077  2.0313
 8094SOL    HW230294   2.305   5.692   2.626 -1.7570  2.1942 -1.6393
 8095SOL     OW30295   5.845   0.660   1.717 -0.4387  0.0467 -0.2414
 8095SOL    HW130296   5.839   0.561   1.701 -1.2447 -0.1399  1.0562
 8095SOL    HW230297   5.899   0.676   1.800  2.1236  0.8647 -2.0002
 8096SOL     OW30298   8.114   0.118   3.305 -0.1641  0.0538  0.4150
 8096SOL    HW130299   8.182   0.159   3.366 -0.0052  0.3335  0.0500
 8096SOL    HW230300   8.089   0.184   3.234  0.4128 -0.6222 -0.4327
 8097SOL     OW30301   9.079   3.795   0.264  0.3123 -0.1855  0.0136
 8097SOL    HW130302   9.030   3.708   0.274 -0.2960  0.2587  1.0290
 8097SOL    HW230303   9.045   3.860   0.333  1.7280  0.4093  0.1644
 8098SOL     OW30304   1.844   8.307   2.441  0.2079  0.3505 -0.6265
 8098SOL    HW130305   1.874   8.310   2.536  0.6810 -0.5928 -0.7400
 8098SOL    HW230306   1.851   8.398   2.401  0.3316  0.6837  0.1441
 8100SOL     OW30307   2.191   5.400   0.410  0.3535  0.1457  0.3854
 8100SOL    HW130308   2.240   5.464   0.469  1.3104 -0.8483  0.6875
 8100SOL    HW230309   2.096   5.428   0.402  0.9487  2.0962 -0.1688
 8101SOL     OW30310   7.619   7.078   3.224  0.0668  0.1038  0.1785
 8101SOL    HW130311   7.539   7.104   3.170 -0.4919 -0.4742  0.7193
 8101SOL    HW230312   7.683   7.155   3.227 -0.4764  0.5830 -0.2319
 8102SOL     OW30313   2.627   6.562   2.068 -0.6216  0.6982  0.3239
 8102SOL    HW130314   2.652   6.637   2.006 -1.2464 -0.6574 -1.6196
 8102SOL    HW230315   2.529   6.545   2.062 -0.6560  0.4545  1.5753
 8103SOL     OW30316   9.385   9.874   1.008 -0.5785 -0.4438  0.1662
 8103SOL    HW130317   9.374   9.968   1.038  3.4772  0.4461 -0.8154
 8103SOL    HW230318   9.418   9.818   1.084 -1.1852 -0.6845  0.2581
 8104SOL     OW30319   0.676   0.305   1.862  0.6926  0.0999  0.6776
 8104SOL    HW130320   0.749   0.253   1.908  1.1907 -0.5326 -0.7788
 8104SOL    HW230321   0.617   0.242   1.811 -0.7603  0.6364  1.6833
 8105SOL     OW30322   3.535   3.390   3.431  0.1464  0.2149  0.0756
 8105SOL    HW130323   3.493   3.361   3.517 -1.0033  0.7667 -0.2862
 8105SOL    HW230324   3.534   3.490   3.425 -0.6699  0.1600 -0.9981
 8106SOL     OW30325   5.931   7.812   2.713 -0.6280  0.3527 -0.2707
 8106SOL    HW130326   5.891   7.858   2.792 -1.6061 -0.3155 -0.3690
 8106SOL    HW230327   5.886   7.843   2.630  1.2045  1.9457 -0.7043
 8107SOL     OW30328   7.120   7.163   4.222 -0.2391  0.0223 -0.0017
 8107SOL    HW130329   7.166   7.203   4.302  0.9755 -0.6488 -0.3621
 8107SOL    HW230330   7.021   7.181   4.229  0.1370  2.1177  0.4119
 8109SOL     OW30331   3.673   2.393   4.110 -0.2898  0.3929 -0.4372
 8109SOL    HW130332   3.694   2.416   4.015  0.7350 -0.7454 -0.5028
 8109SOL    HW230333   3.698   2.298   4.127  0.1623  0.7823  1.1597
 8110SOL     OW30334   8.331   0.045   1.340  0.0559 -0.7067 -0.8881
 8110SOL    HW130335   8.288  -0.003   1.416  2.8380 -0.9082  0.6517
 8110SOL    HW230336   8.267   0.110   1.300 -2.1500 -2.1529  0.2153
 8111SOL     OW30337   8.203   3.023   1.988  0.6341 -0.1914  0.3082
 8111SOL    HW130338   8.258   2.962   2.045  1.5086 -0.4730 -0.8355
 8111SOL    HW230339   8.172   2.974   1.906 -0.6483  0.2010  0.5409
 8112SOL     OW30340   7.536   5.016   3.964 -0.6632 -0.1743 -0.1515
 8112SOL    HW130341   7.491   4.995   3.877 -0.8856  0.7101 -0.2568
 8112SOL    HW230342   7.630   5.046   3.947 -0.5268 -0.5448 -0.0476
 8113SOL     OW30343   6.393   9.074   2.195 -0.1134 -0.1371 -0.3261
 8113SOL    HW130344   6.371   9.164   2.158 -0.7103 -0.0861  0.1567
 8113SOL    HW230345   6.488   9.051   2.170  0.2748  0.9165  0.1309
 8114SOL     OW30346   8.411   0.829   0.649  0.2301 -0.3512  0.2172
 8114SOL    HW130347   8.364   0.805   0.563  1.5336 -0.5603 -0.4530
 8114SOL    HW230348   8.467   0.911   0.634 -0.0084 -0.0323  1.0466
 8115SOL     OW30349   0.226   0.277   4.156  0.0848  0.6218 -0.6653
 8115SOL    HW130350   0.211   0.348   4.225  0.4833 -1.5310  1.7188
 8115SOL    HW230351   0.324   0.267   4.140  0.2389 -1.4217  1.2886
 8116SOL     OW30352   2.274   4.436   3.951 -0.4631  0.1021  0.0803
 8116SOL    HW130353   2.277   4.498   3.872  0.9872 -0.1972 -0.1126
 8116SOL    HW230354   2.331   4.472   4.024 -0.4900 -0.4510  0.3785
 8117SOL     OW30355   0.401   8.308   2.349  0.2413 -0.2281  0.7778
 8117SOL    HW130356   0.445   8.384   2.397 -1.1460  1.1180 -0.0166
 8117SOL    HW230357   0.439   8.221   2.381  2.3650  0.8247  1.1839
 8119SOL     OW30358   3.002   3.369   1.697 -0.4749  0.8947  0.3069
 8119SOL    HW130359   2.949   3.319   1.766 -0.6752  1.0770  0.2845
 8119SOL    HW230360   2.942   3.432   1.647 -0.5217  0.0895 -0.6721
 8120SOL     OW30361   0.892   7.727   1.803 -0.0510 -0.5726  0.6137
 8120SOL    HW130362   0.985   7.714   1.770 -0.4440 -0.7050 -0.4646
 8120SOL    HW230363   0.893   7.735   1.903  1.1446 -0.2425  0.5881
 8121SOL     OW30364   0.174   2.283   3.308  0.4110  0.2702  0.4345
 8121SOL    HW130365   0.128   2.368   3.333  1.2265  0.8270  0.0950
 8121SOL    HW230366   0.263   2.279   3.355 -0.4959 -1.3690  2.0529
 8122SOL     OW30367   0.605   6.257   1.320 -0.6567  0.2445  0.0287
 8122SOL    HW130368   0.652   6.196   1.383 -1.6709 -0.0527  0.5133
 8122SOL    HW230369   0.615   6.223   1.227 -2.5107 -1.5341  0.4443
 8123SOL     OW30370   9.882   2.821   2.176 -0.1535  0.3469 -0.3274
 8123SOL    HW130371   9.878   2.906   2.228  1.8413  0.8386 -0.9120
 8123SOL    HW230372   9.807   2.760   2.203  1.1212  0.3849  3.4462
 8125SOL     OW30373   8.061   3.370   3.764 -0.2663 -0.0498 -0.3463
 8125SOL    HW130374   8.029   3.320   3.683 -1.1563 -0.7901  0.4579
 8125SOL    HW230375   7.984   3.389   3.824  0.3433  0.7887  0.1819
 8126SOL     OW30376   2.213   0.175   0.330  0.1172 -0.2405 -0.4401
 8126SOL    HW130377   2.203   0.099   0.395  0.9389  0.1130  0.1006
 8126SOL    HW230378   2.223   0.138   0.237  0.3718 -0.7920 -0.1956
 8128SOL     OW30379   8.751   0.255   1.042  0.0975  0.0293 -1.4336
 8128SOL    HW130380   8.829   0.263   1.103 -0.2732 -1.4535 -0.7435
 8128SOL    HW230381   8.701   0.341   1.041  0.2829  0.1729  0.1366
 8129SOL     OW30382   1.009   6.803   1.052  0.3970  0.1621  0.1686
 8129SOL    HW130383   1.087   6.817   0.991 -0.1034  1.9296 -0.0920
 8129SOL    HW230384   0.931   6.768   1.000  1.1776 -2.2495  0.5450
 8130SOL     OW30385   0.339   4.198   2.453  0.2417  0.3610 -0.5113
 8130SOL    HW130386   0.346   4.116   2.396  1.7661  0.4619 -0.4952
 8130SOL    HW230387   0.243   4.220   2.469 -0.1883 -1.6018 -0.2666
 8131SOL     OW30388   5.133   9.663   2.627 -0.1166 -0.6073  0.2205
 8131SOL    HW130389   5.228   9.689   2.609 -0.5141 -0.3055 -1.5515
 8131SOL    HW230390   5.131   9.579   2.681  1.1640 -1.3861 -0.8911
 8132SOL     OW30391   2.772   9.696   0.093  0.1533  0.3134 -0.1276
 8132SOL    HW130392   2.764   9.629   0.166  0.8222  1.6899  1.2442
 8132SOL    HW230393   2.868   9.707   0.067  0.1748  1.4057  0.3423
 8133SOL     OW30394   1.620   0.337   0.455  0.3489  0.6703  0.7279
 8133SOL    HW130395   1.567   0.341   0.371  0.2918 -1.6638  0.6376
 8133SOL    HW230396   1.717   0.349   0.434  0.2707  0.7390  0.4077
 8134SOL     OW30397   9.130   5.731   0.564  0.1159  0.3952  0.0928
 8134SOL    HW130398   9.115   5.634   0.587  0.0021  0.2149 -0.7000
 8134SOL    HW230399   9.116   5.743   0.465  2.8072  0.7084 -0.2749
 8135SOL     OW30400   2.756   9.825   4.312  0.4849 -0.1385  0.0317
 8135SOL    HW130401   2.734   9.833   4.409  2.1283 -2.0166  0.6182
 8135SOL    HW230402   2.855   9.826   4.301  0.3125 -0.2449 -1.5872
 8136SOL     OW30403   4.573   1.778   1.578  0.3303  0.0040  0.7614
 8136SOL    HW130404   4.628   1.856   1.608 -0.0476  0.3074  0.6757
 8136SOL    HW230405   4.621   1.729   1.506  0.5261  0.2136  0.7468
 8137SOL     OW30406   9.948   1.689   0.104  0.3284  0.0504 -0.0237
 8137SOL    HW130407  10.030   1.697   0.048  0.8331 -0.8894  0.5701
 8137SOL    HW230408   9.903   1.778   0.111  0.6751  0.3262 -1.2837
 8138SOL     OW30409   4.570   1.226   0.598  0.0281  0.4174 -0.0473
 8138SOL    HW130410   4.597   1.217   0.502  0.7327 -1.6238  0.2973
 8138SOL    HW230411   4.652   1.226   0.655 -0.4801 -2.2341  0.7794
 8139SOL     OW30412   8.232   5.853   2.746  0.3448 -0.1803 -0.3419
 8139SOL    HW130413   8.158   5.838   2.681 -0.1089 -1.5642  0.4617
 8139SOL    HW230414   8.194   5.871   2.837  0.9703 -0.3900 -0.0306
 8140SOL     OW30415   1.234   1.919   2.836  0.0133  0.5241 -0.1280
 8140SOL    HW130416   1.224   1.924   2.737 -1.5359 -0.9066 -0.0571
 8140SOL    HW230417   1.148   1.945   2.880  0.1270 -0.5839  0.7836
 8141SOL     OW30418   2.182   0.240   4.028  0.7622 -0.0406 -0.2445
 8141SOL    HW130419   2.263   0.193   4.064  1.8868  1.7167 -0.4174
 8141SOL    HW230420   2.104   0.178   4.031  1.6841 -1.1670  1.6669
 8142SOL     OW30421   9.878   2.145   0.440  0.1486  0.5920 -0.1139
 8142SOL    HW130422   9.822   2.199   0.502  0.3971 -0.8825  1.4453
 8142SOL    HW230423   9.821   2.105   0.368 -0.2425  1.7982 -0.4747
 8143SOL     OW30424   5.129   9.684   4.364  0.4365 -0.0347  0.2122
 8143SOL    HW130425   5.197   9.645   4.426 -0.8935 -2.0565  0.4747
 8143SOL    HW230426   5.119   9.626   4.284  0.0874  1.0477 -0.5455
 8146SOL     OW30427   7.314   5.365   3.925  0.2335  0.0788 -0.2019
 8146SOL    HW130428   7.325   5.374   3.826  0.6485  0.9907 -0.0866
 8146SOL    HW230429   7.402   5.339   3.966 -0.1891 -1.3403 -0.1790
 8147SOL     OW30430   8.865   9.098   3.442 -0.0818 -0.4694  0.2553
 8147SOL    HW130431   8.875   9.191   3.478  3.4338 -0.2267 -1.1428
 8147SOL    HW230432   8.820   9.040   3.510  1.0580  1.3685  2.6442
 8148SOL     OW30433   7.255   1.352   3.381  0.4061 -0.1195 -0.1254
 8148SOL    HW130434   7.313   1.375   3.303  0.1108 -0.9082 -0.5848
 8148SOL    HW230435   7.310   1.309   3.452  0.4154 -0.7477 -0.5076
 8149SOL     OW30436   2.757   8.016   4.232 -0.1332 -0.0889 -0.5640
 8149SOL    HW130437   2.719   8.034   4.141 -0.2698  1.2482 -0.2600
 8149SOL    HW230438   2.707   8.070   4.300  0.1135 -0.9093  0.2824
 8150SOL     OW30439   3.234   2.555   2.895  0.0320 -0.3562  0.3177
 8150SOL    HW130440   3.229   2.459   2.869 -1.6628 -0.6764  1.6853
 8150SOL    HW230441   3.143   2.596   2.889  0.4972  0.8072  0.9713
 8151SOL     OW30442   8.956   4.783   3.088 -0.4655  0.5174 -0.1409
 8151SOL    HW130443   8.902   4.864   3.110 -2.7521 -0.4467 -1.9703
 8151SOL    HW230444   8.924   4.744   3.002  0.4954 -2.4446  0.7818
 8153SOL     OW30445   4.186   6.982   1.890 -0.4083  0.4874 -0.4482
 8153SOL    HW130446   4.248   7.011   1.963  1.5422 -1.3865 -1.3224
 8153SOL    HW230447   4.135   6.901   1.920  0.2462 -0.1621 -1.0921
 8155SOL     OW30448   3.771   1.377   3.859 -0.7698 -0.3339 -0.4922
 8155SOL    HW130449   3.694   1.314   3.870  0.7974 -2.5866 -1.9585
 8155SOL    HW230450   3.747   1.447   3.793 -2.2980  0.2296  0.6330
 8156SOL     OW30451   7.099   2.120   2.835 -0.5221  0.0157  0.0195
 8156SOL    HW130452   7.021   2.163   2.789  0.6253  1.2341 -0.8553
 8156SOL    HW230453   7.084   2.022   2.842 -2.0611  0.2162 -0.2736
 8157SOL     OW30454   3.650   9.013   0.658 -0.5747 -0.3586 -0.1822
 8157SOL    HW130455   3.616   9.018   0.564 -1.4574  1.5638  0.2229
 8157SOL    HW230456   3.740   8.968   0.658 -1.4015 -2.1296 -1.6988
 8158SOL     OW30457   2.493   3.545   2.971  0.2804 -0.1290  0.0598
 8158SOL    HW130458   2.445   3.461   2.948 -0.2984  1.1042 -3.5326
 8158SOL    HW230459   2.429   3.622   2.972  1.1365  0.6009  1.3994
 8160SOL     OW30460   9.912   9.908   1.357 -0.6131 -0.3416 -0.1029
 8160SOL    HW130461   9.932   9.820   1.400  0.6091  0.0315  0.1088
 8160SOL    HW230462   9.976   9.923   1.281 -1.3376  0.0026 -0.6550
 8161SOL     OW30463   3.059   0.840   3.789 -0.2952  0.0602  0.3604
 8161SOL    HW130464   3.111   0.776   3.847 -2.7433 -2.0553  0.3289
 8161SOL    HW230465   3.009   0.904   3.847  3.2585  2.9362  0.3695
 8163SOL     OW30466   9.987   1.984   2.603 -0.2701  0.1620  0.0636
 8163SOL    HW130467  10.056   1.981   2.675 -0.7695  0.6884  0.5727
 8163SOL    HW230468   9.955   1.892   2.584 -0.4880  0.0604  0.8735
 8164SOL     OW30469   0.933   6.900   0.062 -0.6266  0.3843  0.6359
 8164SOL    HW130470   0.858   6.958   0.094 -2.9872 -1.4180 -1.4894
 8164SOL    HW230471   0.950   6.828   0.130 -1.5648  0.1664  0.6534
 8165SOL     OW30472   3.494   5.780   3.473 -0.1640 -0.1175 -0.8013
 8165SOL    HW130473   3.498   5.728   3.388 -0.5380 -1.0547 -0.2488
 8165SOL    HW230474   3.507   5.877   3.453  0.1537 -0.3778 -1.8788
 8167SOL     OW30475   8.655   5.906   2.333 -0.0290  0.0723  0.8533
 8167SOL    HW130476   8.617   5.903   2.426 -2.7448  1.0215 -0.2086
 8167SOL    HW230477   8.659   6.000   2.301  1.2071 -0.2234  0.1048
 8168SOL     OW30478   2.511   2.028   1.861  0.0327 -0.2158  0.5218
 8168SOL    HW130479   2.582   1.993   1.922 -1.1634 -0.8070  1.6023
 8168SOL    HW230480   2.421   1.999   1.895 -0.6094 -1.3430 -2.0531
 8169SOL     OW30481   1.190   8.669   3.405  0.1465 -0.0079 -0.2211
 8169SOL    HW130482   1.146   8.716   3.328 -2.9146 -0.3609  1.2431
 8169SOL    HW230483   1.152   8.578   3.414  1.6823 -0.5760  0.7359
 8170SOL     OW30484   8.476   8.437   0.180  0.0573  0.3064  0.3971
 8170SOL    HW130485   8.400   8.452   0.243  0.1713  1.6517  0.2171
 8170SOL    HW230486   8.555   8.490   0.209  0.6044 -0.2749 -0.0102
 8171SOL     OW30487   3.823   9.458   3.346 -0.0878 -0.2662  0.2566
 8171SOL    HW130488   3.851   9.553   3.330 -1.9661  0.2407 -0.2069
 8171SOL    HW230489   3.734   9.442   3.303  0.6640 -2.5408 -0.5471
 8172SOL     OW30490   2.234   3.108   0.050  0.3133  0.1063  0.1517
 8172SOL    HW130491   2.202   3.017   0.077  1.3193 -0.6162 -1.0898
 8172SOL    HW230492   2.260   3.160   0.132  0.1265 -0.8656  0.8274
 8173SOL     OW30493   2.077   3.057   0.784 -0.4114 -0.3389 -0.3810
 8173SOL    HW130494   1.999   3.118   0.792  0.8001  1.3617 -1.1265
 8173SOL    HW230495   2.115   3.063   0.692  0.1918 -1.6774 -0.2439
 8174SOL     OW30496   4.825   1.332   0.391 -0.1756 -0.2385 -0.4826
 8174SOL    HW130497   4.782   1.411   0.348  1.5210  0.4069 -1.0592
 8174SOL    HW230498   4.888   1.364   0.462 -0.3435 -1.1348  0.0758
 8175SOL     OW30499   4.359   7.070   2.080  0.0595 -0.4296  0.0232
 8175SOL    HW130500   4.353   7.170   2.080  1.5969 -0.3333  0.1873
 8175SOL    HW230501   4.323   7.035   2.167  1.6402  0.1246  0.9121
 8176SOL     OW30502   2.248   0.873   0.162  0.4373  0.5170 -0.0459
 8176SOL    HW130503   2.172   0.904   0.105 -0.5968 -0.4739  0.7847
 8176SOL    HW230504   2.234   0.778   0.189  0.7863  1.0288  2.0706
 8177SOL     OW30505   3.314   0.682   4.413 -0.2895 -0.5591  0.0893
 8177SOL    HW130506   3.337   0.779   4.405 -0.5992 -0.4467  0.5724
 8177SOL    HW230507   3.278   0.664   4.504  0.5016 -1.2819  0.2679
 8178SOL     OW30508   6.771   8.749   1.436  0.1976 -0.4154 -0.0059
 8178SOL    HW130509   6.800   8.798   1.354  0.4176  0.0643  0.3536
 8178SOL    HW230510   6.684   8.787   1.468 -1.8141 -3.0509 -2.1252
 8179SOL     OW30511   4.558   2.144   0.986 -0.1991  0.3826 -0.3514
 8179SOL    HW130512   4.608   2.204   0.924  0.9236  1.9397  2.0022
 8179SOL    HW230513   4.595   2.152   1.078 -1.1828 -2.6458  0.3707
 8180SOL     OW30514   9.713   0.839   0.362 -0.2319 -0.1893  0.0849
 8180SOL    HW130515   9.669   0.806   0.278 -1.7794  1.2653  0.2931
 8180SOL    HW230516   9.695   0.775   0.436 -2.5148  0.6287  0.2961
 8181SOL     OW30517   4.542   4.647   2.144  0.3756 -0.2113  0.3354
 8181SOL    HW130518   4.462   4.609   2.189  0.4750  1.5894  2.1265
 8181SOL    HW230519   4.515   4.725   2.088  0.8837  0.5414  1.1223
 8182SOL     OW30520   4.750   0.309   2.373  0.2066  0.0478  0.7647
 8182SOL    HW130521   4.695   0.231   2.345  0.5276 -0.4352  1.4786
 8182SOL    HW230522   4.692   0.373   2.424 -0.4701  1.1116 -1.2900
 8183SOL     OW30523   1.766   5.528   1.914 -0.1105 -0.5038 -0.2803
 8183SOL    HW130524   1.799   5.584   1.990  0.5915 -1.8524  0.4279
 8183SOL    HW230525   1.842   5.508   1.852 -0.1641 -1.3439 -0.0889
 8184SOL     OW30526   9.014   7.105   4.102 -1.2458  0.3433 -0.2248
 8184SOL    HW130527   9.085   7.164   4.143  0.5167 -0.8115 -1.5663
 8184SOL    HW230528   8.989   7.034   4.167 -0.0655 -0.1502 -0.2980
 8186SOL     OW30529   8.713   9.098   4.445 -0.5284  0.0663 -0.6318
 8186SOL    HW130530   8.774   9.169   4.409  0.8965 -0.4949  0.6253
 8186SOL    HW230531   8.743   9.008   4.412 -1.2134 -0.1185 -0.7440
 8187SOL     OW30532   0.454   2.718   0.157  0.9348 -0.3405  0.3000
 8187SOL    HW130533   0.472   2.679   0.067  0.0938  0.9129 -0.4139
 8187SOL    HW230534   0.370   2.679   0.194 -0.6532  1.7492 -1.0020
 8188SOL     OW30535   4.909   3.807   2.032  0.0594  0.2619 -0.0081
 8188SOL    HW130536   4.992   3.858   2.011 -0.3908  1.6739  1.5673
 8188SOL    HW230537   4.880   3.827   2.126 -0.0799 -2.9548  0.7088
 8189SOL     OW30538   9.346   2.066   4.223 -0.0943 -0.1611  0.2152
 8189SOL    HW130539   9.344   2.165   4.206 -0.5900 -0.4354 -1.3498
 8189SOL    HW230540   9.330   2.017   4.138  1.3706 -1.6204  0.7496
 8190SOL     OW30541   3.880   8.047   2.506 -0.3624  0.0773  0.5557
 8190SOL    HW130542   3.795   7.995   2.518 -0.6248  0.3354 -0.1634
 8190SOL    HW230543   3.867   8.140   2.539 -0.3689  0.1234  0.4275
 8191SOL     OW30544   2.129   8.087   4.407 -0.3437 -0.0500 -0.0984
 8191SOL    HW130545   2.042   8.038   4.420 -0.9830  0.9432 -0.5543
 8191SOL    HW230546   2.133   8.125   4.315  0.1158  0.8013  0.2652
 8192SOL     OW30547   4.885   1.059   3.072  0.8579 -0.2561 -0.1362
 8192SOL    HW130548   4.923   1.133   3.128  2.0183  0.1006 -1.3793
 8192SOL    HW230549   4.914   0.971   3.111  0.1624 -0.0580  0.8596
 8194SOL     OW30550   0.826   7.877   0.682  0.1177  0.6116  0.0197
 8194SOL    HW130551   0.910   7.824   0.698  0.6889  1.4362 -0.2256
 8194SOL    HW230552   0.774   7.883   0.767 -0.1893 -0.7498 -0.0588
 8195SOL     OW30553   4.604   0.930   1.607  0.0737  0.3373 -0.4302
 8195SOL    HW130554   4.517   0.886   1.584  1.8875 -2.1344 -2.8012
 8195SOL    HW230555   4.644   0.883   1.686  0.9782 -0.8726 -1.6061
 8196SOL     OW30556   1.552   9.910   1.575 -0.0533  0.3420  0.6105
 8196SOL    HW130557   1.627   9.975   1.594 -0.3633  0.8292  0.1587
 8196SOL    HW230558   1.473   9.960   1.541  0.3072 -0.4780 -1.4495
 8197SOL     OW30559   8.323   2.079   1.765  0.0077  0.2525  0.1259
 8197SOL    HW130560   8.276   2.014   1.824 -0.7519  0.5520 -0.1425
 8197SOL    HW230561   8.295   2.172   1.789 -2.6670  0.2587 -2.6728
 8198SOL     OW30562   1.297   3.774   0.912 -0.0036 -0.3868 -0.3726
 8198SOL    HW130563   1.379   3.720   0.890 -0.9748 -0.8643 -2.9764
 8198SOL    HW230564   1.220   3.713   0.927 -0.5807  0.1852 -0.9897
 8199SOL     OW30565   0.379   5.371   1.567 -0.0223  0.1396 -0.2219
 8199SOL    HW130566   0.376   5.303   1.493  1.7492  0.9577 -1.0865
 8199SOL    HW230567   0.383   5.463   1.528  0.1031  0.6217  0.9052
 8200SOL     OW30568   8.068   3.920   3.929  0.0206 -0.0775 -1.0367
 8200SOL    HW130569   7.979   3.946   3.966 -0.1862  0.6372 -2.0058
 8200SOL    HW230570   8.103   3.840   3.978 -0.6336  0.3215  0.0962
 8201SOL     OW30571   2.695   5.672   1.969  0.1906 -0.0504 -0.5590
 8201SOL    HW130572   2.618   5.724   1.932 -0.4071 -0.6572 -0.1786
 8201SOL    HW230573   2.664   5.615   2.044  1.2631  0.6194  0.4102
 8202SOL     OW30574   2.124   1.735   3.043 -0.4238  0.3707 -0.1535
 8202SOL    HW130575   2.057   1.715   3.115  0.8494 -0.9400  0.6896
 8202SOL    HW230576   2.099   1.686   2.960 -0.6196  0.0503  0.0914
 8203SOL     OW30577   5.064   8.684   4.016 -0.2771 -0.2026 -0.0588
 8203SOL    HW130578   4.999   8.752   4.051 -0.8530 -0.6316 -0.2950
 8203SOL    HW230579   5.142   8.677   4.078 -0.2079  0.6876 -0.0392
 8204SOL     OW30580   5.260   9.551   2.389  0.7662  0.1478  0.0635
 8204SOL    HW130581   5.195   9.598   2.448  0.1977  1.2519 -1.4097
 8204SOL    HW230582   5.326   9.617   2.353  3.4335 -1.1152  2.4134
 8205SOL     OW30583   2.474   8.935   0.659  0.1415  0.0641 -0.4560
 8205SOL    HW130584   2.505   8.867   0.592 -1.2826  0.3791 -1.4656
 8205SOL    HW230585   2.441   8.888   0.741  3.4730 -0.2652  0.7748
 8206SOL     OW30586   0.496   0.990   1.785 -0.3014  0.0536 -0.4465
 8206SOL    HW130587   0.500   0.964   1.689  1.3965  0.4831 -0.5080
 8206SOL    HW230588   0.586   1.022   1.815 -0.4242 -1.5128  1.7052
 8207SOL     OW30589   0.621   2.078   3.493  0.0714 -0.5187 -0.0728
 8207SOL    HW130590   0.665   2.107   3.578 -0.3383  0.1229 -0.0798
 8207SOL    HW230591   0.592   1.982   3.502  0.2743 -0.5388  0.4105
 8208SOL     OW30592   8.190   9.478   2.960 -0.0597  0.3434  0.1255
 8208SOL    HW130593   8.217   9.389   2.996 -1.6203 -0.5816 -0.9643
 8208SOL    HW230594   8.258   9.508   2.893 -0.8035 -1.1990 -1.3614
 8210SOL     OW30595   6.970   6.586   3.846 -0.3975  0.4674  0.2488
 8210SOL    HW130596   7.062   6.581   3.807  0.2094 -0.5425  1.7764
 8210SOL    HW230597   6.904   6.604   3.773  0.7611 -1.0287 -1.2118
 8211SOL     OW30598   0.814   3.042   3.605  0.2950 -0.1151  0.0409
 8211SOL    HW130599   0.859   2.981   3.541  1.7977 -0.6242  1.5262
 8211SOL    HW230600   0.750   2.990   3.662 -1.1761  0.3666 -1.1289
 8212SOL     OW30601   4.321   1.798   0.517 -0.6792  0.0668 -0.1025
 8212SOL    HW130602   4.352   1.706   0.539 -0.5341  0.0484 -0.3758
 8212SOL    HW230603   4.260   1.832   0.589 -2.5768 -1.1378 -1.0901
 8213SOL     OW30604   0.268   3.879   0.384 -0.3543  0.0456 -0.3941
 8213SOL    HW130605   0.240   3.841   0.295  1.5330 -2.2508 -0.0663
 8213SOL    HW230606   0.275   3.978   0.377  0.9676 -0.1939 -3.1953
 8214SOL     OW30607   7.536   8.479   2.071  0.2132  0.4253 -0.5624
 8214SOL    HW130608   7.514   8.530   2.154 -1.5484 -1.3350  0.0724
 8214SOL    HW230609   7.583   8.394   2.095 -0.4825 -0.1889 -1.3509
 8216SOL     OW30610   3.534   7.900   0.904 -0.3589 -0.2044  0.1908
 8216SOL    HW130611   3.581   7.859   0.983 -0.8704 -2.8097 -0.8225
 8216SOL    HW230612   3.435   7.890   0.915 -0.5122  1.1297  0.1056
 8219SOL     OW30613   0.965   9.994   2.124 -0.0932  0.4071 -0.1218
 8219SOL    HW130614   0.908   9.918   2.154 -0.7286  0.4490 -1.1874
 8219SOL    HW230615   1.058   9.960   2.105 -0.1320  0.0766  0.2704
 8220SOL     OW30616   8.086   5.291   2.022  0.1309 -0.2458 -0.3461
 8220SOL    HW130617   8.038   5.326   2.101 -0.1503 -0.4778 -0.4138
 8220SOL    HW230618   8.182   5.318   2.026 -0.2552  1.2483 -0.8241
 8221SOL     OW30619   3.218   3.366   2.177 -0.4983 -0.2602  0.0784
 8221SOL    HW130620   3.306   3.376   2.223 -1.3596  1.4490  1.4229
 8221SOL    HW230621   3.233   3.343   2.081  1.5210  2.6370 -0.3825
 8222SOL     OW30622   7.589   2.201   1.036  0.2498 -0.4703 -0.2859
 8222SOL    HW130623   7.569   2.286   1.085 -0.6657 -0.1283 -1.2274
 8222SOL    HW230624   7.579   2.217   0.937 -1.5771 -2.0859 -0.3780
 8223SOL     OW30625   6.743   0.187   2.042 -0.0965  0.3286  0.1204
 8223SOL    HW130626   6.682   0.133   2.101 -0.3997  0.6450  0.0996
 8223SOL    HW230627   6.835   0.147   2.044 -0.6400 -1.0192 -0.9934
 8224SOL     OW30628   2.036   7.379   3.996 -0.3455  0.2843 -0.5849
 8224SOL    HW130629   2.129   7.345   3.984 -1.2725 -1.9344 -1.5732
 8224SOL    HW230630   2.040   7.477   4.020  2.1391  0.8987 -3.1850
 8225SOL     OW30631   7.588   3.446   0.769 -0.4817 -0.0692 -0.1966
 8225SOL    HW130632   7.631   3.430   0.858  0.2805 -1.2099 -0.7593
 8225SOL    HW230633   7.499   3.402   0.766 -1.3751  1.6170  0.6829
 8228SOL     OW30634   0.911   9.802   1.599  0.2733 -0.1891 -0.5295
 8228SOL    HW130635   1.002   9.783   1.636  0.1943  2.9042  1.4840
 8228SOL    HW230636   0.919   9.860   1.518  0.0854  2.2381  1.1236
 8230SOL     OW30637   5.352   1.160   1.870 -0.0414 -0.9584 -0.2581
 8230SOL    HW130638   5.256   1.170   1.842 -0.1177 -1.6707 -0.2675
 8230SOL    HW230639   5.385   1.070   1.842 -0.0973 -1.6707  1.8749
 8231SOL     OW30640   4.537   4.442   0.734  0.8315  0.0817 -0.4201
 8231SOL    HW130641   4.627   4.433   0.692  0.5177  0.2502 -1.1448
 8231SOL    HW230642   4.512   4.539   0.739  0.9221  0.0713  0.2819
 8232SOL     OW30643   4.041   3.708   4.164 -0.2488  0.1845  0.0918
 8232SOL    HW130644   3.986   3.742   4.240 -2.9678 -1.6946 -0.9422
 8232SOL    HW230645   4.100   3.634   4.197  0.0939  0.7595  0.7853
 8233SOL     OW30646   0.376   4.353   2.826  0.1898  0.0213  0.5425
 8233SOL    HW130647   0.424   4.363   2.738 -0.9012 -0.0627 -0.0763
 8233SOL    HW230648   0.419   4.280   2.879 -0.0825 -0.9665 -0.5791
 8235SOL     OW30649   6.757   0.565   1.998  0.4874 -0.2231 -0.3028
 8235SOL    HW130650   6.815   0.516   2.062  0.2523 -0.6656 -0.4211
 8235SOL    HW230651   6.662   0.533   2.008  0.6454 -1.1679 -1.6904
 8236SOL     OW30652   9.055   4.437   0.687  0.2378  0.2472 -0.0815
 8236SOL    HW130653   8.958   4.447   0.707  0.6967  2.4265  1.2834
 8236SOL    HW230654   9.106   4.434   0.773  1.5041  0.6178 -0.8040
 8237SOL     OW30655   8.797   3.766   2.481  0.3543 -0.2245  0.1189
 8237SOL    HW130656   8.822   3.685   2.535 -1.6145 -0.2642  1.0065
 8237SOL    HW230657   8.752   3.833   2.541 -0.1849  0.5040 -1.0962
 8239SOL     OW30658   2.801   0.694   0.688 -0.3310 -0.1331  0.6294
 8239SOL    HW130659   2.746   0.696   0.772 -2.9900  0.3447 -1.0642
 8239SOL    HW230660   2.812   0.787   0.653 -0.3266 -0.4483 -0.2213
 8240SOL     OW30661   2.008   7.760   2.002  0.3376 -0.5996  0.0097
 8240SOL    HW130662   2.052   7.808   1.926 -0.4093 -1.2291 -0.8163
 8240SOL    HW230663   1.925   7.809   2.028  0.4500 -0.5356  0.2521
 8241SOL     OW30664   2.261   2.421   3.004  0.4043  0.1667  0.2513
 8241SOL    HW130665   2.339   2.358   3.012 -0.2811 -0.8585 -0.9526
 8241SOL    HW230666   2.213   2.425   3.092  0.4983 -0.9422  0.3641
 8242SOL     OW30667   7.795   3.977   4.000 -0.4941 -0.2553 -0.0576
 8242SOL    HW130668   7.755   4.002   4.089  0.9976  0.7896  0.3317
 8242SOL    HW230669   7.722   3.976   3.931 -2.0263 -2.9769  1.5060
 8243SOL     OW30670   9.953   1.304   1.008  0.1133  0.5714 -0.1972
 8243SOL    HW130671  10.041   1.328   0.965 -0.4136  1.0604 -1.0120
 8243SOL    HW230672   9.950   1.206   1.023  0.5564  0.4707 -0.7272
 8246SOL     OW30673   1.110   8.421   3.393 -0.3397  0.2854  0.3222
 8246SOL    HW130674   1.176   8.346   3.389 -0.8258 -0.0757 -1.2735
 8246SOL    HW230675   1.018   8.386   3.380 -0.3344  1.4268 -3.5094
 8247SOL     OW30676   4.574   3.461   1.042  0.7595 -0.3178  0.2640
 8247SOL    HW130677   4.640   3.468   1.117  2.8995 -0.3667 -1.5800
 8247SOL    HW230678   4.623   3.455   0.955 -1.6938 -0.2458 -1.1504
 8248SOL     OW30679   3.480   6.212   2.900 -0.0315  0.2570 -0.5123
 8248SOL    HW130680   3.380   6.209   2.906 -0.1287  2.1627 -0.8862
 8248SOL    HW230681   3.507   6.196   2.805  0.1677 -2.6474 -0.0184
 8249SOL     OW30682   8.452   5.289   2.404 -0.2551 -0.0949 -0.2717
 8249SOL    HW130683   8.432   5.240   2.489  2.0640  1.5147  1.2827
 8249SOL    HW230684   8.545   5.267   2.375 -0.6256  0.2942 -1.7716
 8250SOL     OW30685   2.197   5.236   3.130  0.7737  0.6865  0.0428
 8250SOL    HW130686   2.106   5.268   3.158  0.3296 -2.2251  2.1141
 8250SOL    HW230687   2.267   5.290   3.176  0.0717  1.1241  0.6161
 8251SOL     OW30688   5.890   9.992   0.959  0.5192 -0.0248  0.0456
 8251SOL    HW130689   5.832  10.065   0.923  0.2602 -0.2606 -0.0204
 8251SOL    HW230690   5.856   9.964   1.049  1.0290  0.4101  0.3797
 8252SOL     OW30691   8.385   5.303   2.126 -0.2007 -0.6972 -0.8061
 8252SOL    HW130692   8.459   5.368   2.110 -0.6831  0.0836  0.1618
 8252SOL    HW230693   8.372   5.290   2.224 -1.0512 -1.1809 -0.9783
 8253SOL     OW30694   2.151   0.479   1.918  0.1722 -0.1052 -0.3258
 8253SOL    HW130695   2.146   0.469   1.819 -2.6123 -0.7070 -0.1660
 8253SOL    HW230696   2.079   0.425   1.961  1.5042 -0.0711  2.0646
 8254SOL     OW30697   8.417   7.543   3.957  0.6546 -0.1828 -0.0242
 8254SOL    HW130698   8.498   7.506   3.913 -0.7331 -1.4275 -1.5733
 8254SOL    HW230699   8.336   7.526   3.900 -0.6108  1.6236  1.1601
 8255SOL     OW30700   3.771   0.502   0.223 -0.4757  0.2514 -0.8120
 8255SOL    HW130701   3.686   0.452   0.209 -0.5180  0.0819  0.0355
 8255SOL    HW230702   3.756   0.575   0.290  0.9179 -2.0658  2.0936
 8256SOL     OW30703   3.305   4.487   1.867 -0.2500  0.3571  0.1378
 8256SOL    HW130704   3.328   4.561   1.930  2.5747 -0.7443  0.4901
 8256SOL    HW230705   3.245   4.522   1.795  1.1250  3.0398  0.2253
 8257SOL     OW30706   0.152   8.337   3.167  0.0004  0.4866  0.3670
 8257SOL    HW130707   0.079   8.392   3.127 -0.4669  0.7035  1.5105
 8257SOL    HW230708   0.141   8.333   3.266  1.2673  0.1331  0.5102
 8259SOL     OW30709   7.974   1.246   3.973 -0.2047  0.1836 -0.5219
 8259SOL    HW130710   8.047   1.290   4.026 -0.5237 -0.3371  0.3651
 8259SOL    HW230711   7.995   1.251   3.876  1.0922 -0.1063 -0.2602
 8260SOL     OW30712   0.707   0.961   2.463 -0.4452 -0.0751 -0.3630
 8260SOL    HW130713   0.684   1.053   2.432 -1.9551 -0.8956 -1.7658
 8260SOL    HW230714   0.759   0.967   2.548  0.4058  2.0990 -0.9970
 8261SOL     OW30715   1.362   3.443   3.164 -0.1941 -0.2633 -0.1247
 8261SOL    HW130716   1.456   3.472   3.184  0.3828 -2.2105  0.0791
 8261SOL    HW230717   1.333   3.483   3.077  0.8309  0.3752 -0.1850
 8262SOL     OW30718   3.614   5.431   2.697 -0.8120 -0.1442  0.0172
 8262SOL    HW130719   3.591   5.470   2.786 -0.1775 -1.0837  0.6086
 8262SOL    HW230720   3.562   5.347   2.682 -1.2308  0.2312 -0.6915
 8265SOL     OW30721   9.731   9.786   1.120 -0.0543 -0.3243 -0.9429
 8265SOL    HW130722   9.719   9.884   1.108  3.3331  0.1926 -0.7591
 8265SOL    HW230723   9.795   9.751   1.052  0.2154 -2.0328  0.1404
 8266SOL     OW30724   5.734   8.491   3.137 -0.1689 -0.7076 -0.4220
 8266SOL    HW130725   5.792   8.496   3.055 -1.0447 -1.1191 -1.0711
 8266SOL    HW230726   5.792   8.476   3.217  0.9372  2.1877 -0.6091
 8270SOL     OW30727   4.115   3.450   0.752 -0.0267 -0.2725  0.3378
 8270SOL    HW130728   4.085   3.458   0.657  0.1435 -0.0349  0.3049
 8270SOL    HW230729   4.116   3.353   0.778  1.8766 -0.5113 -0.5417
 8273SOL     OW30730   0.538   8.001   0.356 -0.0802 -0.3739  0.0196
 8273SOL    HW130731   0.466   8.060   0.391  0.1572  0.3284 -0.6532
 8273SOL    HW230732   0.537   8.003   0.256  1.2637  0.1195  0.0065
 8274SOL     OW30733   0.140   3.958   2.456 -0.4917 -0.2706 -0.5173
 8274SOL    HW130734   0.109   3.946   2.362 -2.2457  1.3921 -0.1943
 8274SOL    HW230735   0.233   3.924   2.466  0.1066  0.5436 -3.1248
 8275SOL     OW30736   9.154   1.480   3.380  0.2639 -0.5131  0.6207
 8275SOL    HW130737   9.193   1.455   3.291  0.2872 -0.9301  0.7489
 8275SOL    HW230738   9.084   1.414   3.405 -0.8793  0.5128  0.1582
 8276SOL     OW30739   4.523   2.398   0.223 -0.3416 -0.3592  0.2502
 8276SOL    HW130740   4.612   2.383   0.267  0.1073 -0.7627 -0.7727
 8276SOL    HW230741   4.485   2.485   0.254 -0.0627 -0.6594  1.4721
 8277SOL     OW30742   0.657   8.504   3.145  0.0908 -0.1508 -0.3454
 8277SOL    HW130743   0.609   8.552   3.218  0.5503 -0.4437  0.1523
 8277SOL    HW230744   0.633   8.407   3.147  1.6974 -0.5548  0.7515
 8278SOL     OW30745   2.759   8.988   3.174 -0.2146 -0.2543  0.0253
 8278SOL    HW130746   2.806   9.019   3.092 -3.9424  1.7383 -1.4798
 8278SOL    HW230747   2.764   9.059   3.245 -1.5352  0.3326 -0.4365
 8279SOL     OW30748   8.679   4.239   2.963 -0.5552  0.1590  0.6790
 8279SOL    HW130749   8.616   4.284   2.900 -0.0594 -1.1955 -0.7988
 8279SOL    HW230750   8.694   4.298   3.043 -0.5202  2.2712 -0.8546
 8280SOL     OW30751   9.109   5.137   3.225  0.3685 -0.1275  0.2170
 8280SOL    HW130752   9.203   5.124   3.193  0.4052 -0.8449  0.5881
 8280SOL    HW230753   9.089   5.235   3.233  0.9592  0.0309 -0.2255
 8282SOL     OW30754   3.387   9.736   2.932  0.6738 -0.3721  0.2646
 8282SOL    HW130755   3.403   9.638   2.938  0.0146 -0.4905  0.0625
 8282SOL    HW230756   3.458   9.778   2.876  0.3168 -0.8848 -0.5715
 8283SOL     OW30757   9.728   3.875   1.878 -0.1621  0.3664  0.0970
 8283SOL    HW130758   9.825   3.884   1.854 -0.5830  1.6860 -1.1884
 8283SOL    HW230759   9.683   3.814   1.811 -0.0749 -0.8716  1.1413
 8284SOL     OW30760   3.287   7.072   0.050 -0.1749 -0.4053  0.2337
 8284SOL    HW130761   3.206   7.130   0.057 -0.2056 -0.6049  1.8660
 8284SOL    HW230762   3.368   7.129   0.038 -0.5930 -0.2310 -1.9143
 8285SOL     OW30763   8.393   8.828   3.898 -0.3364 -0.0909  0.0017
 8285SOL    HW130764   8.405   8.731   3.878  0.6636  0.4303 -2.1062
 8285SOL    HW230765   8.450   8.854   3.976 -0.6413 -1.1871  0.5979
 8286SOL     OW30766   6.883   0.581   2.521  0.0234 -0.3510 -0.2956
 8286SOL    HW130767   6.843   0.541   2.439 -2.0053 -2.4187  1.6090
 8286SOL    HW230768   6.812   0.632   2.571  1.2197  0.8958  0.1412
 8287SOL     OW30769   8.101   0.653   0.846 -0.0453  0.5230  0.1105
 8287SOL    HW130770   8.068   0.677   0.755  1.4717  0.7606 -0.3748
 8287SOL    HW230771   8.182   0.706   0.868  1.1503 -1.4281  0.5221
 8288SOL     OW30772   7.674   8.243   3.715  0.3909 -0.1075  0.0305
 8288SOL    HW130773   7.668   8.160   3.660  0.7850 -0.1002 -0.0254
 8288SOL    HW230774   7.584   8.264   3.754  0.5871 -1.3481  1.1880
 8289SOL     OW30775   2.269   5.656   2.443 -0.4342  0.2435 -0.1054
 8289SOL    HW130776   2.292   5.563   2.470  0.2316  0.6788  0.8196
 8289SOL    HW230777   2.192   5.654   2.378  0.3981 -1.0202 -1.0663
 8292SOL     OW30778   4.946   4.675   0.923  0.1589 -0.6244  0.4978
 8292SOL    HW130779   4.984   4.640   0.838 -0.1815  0.1078  0.0406
 8292SOL    HW230780   4.987   4.764   0.945 -0.7864 -0.1398  0.3456
 8293SOL     OW30781   9.082   6.167   2.717 -0.1055 -0.4366  0.3114
 8293SOL    HW130782   9.048   6.170   2.811 -2.6610  1.1870 -0.6184
 8293SOL    HW230783   9.026   6.106   2.662 -1.1845  1.7175 -1.0762
 8294SOL     OW30784   9.621   3.782   0.276 -0.3977 -0.2371 -0.4709
 8294SOL    HW130785   9.628   3.818   0.369 -1.6105 -0.2894 -0.3494
 8294SOL    HW230786   9.540   3.820   0.232  0.9314  0.9006 -2.0096
 8295SOL     OW30787   2.428   8.747   2.107  1.1644  0.1578  0.2378
 8295SOL    HW130788   2.515   8.796   2.114  0.1048  1.7546  3.1470
 8295SOL    HW230789   2.425   8.675   2.176  0.6479 -0.6673 -0.6435
 8297SOL     OW30790   3.906   9.250   0.390  0.0441  0.4656  0.0278
 8297SOL    HW130791   4.001   9.279   0.379  0.0073  0.8105  0.5858
 8297SOL    HW230792   3.855   9.269   0.306 -0.5554  4.2349  1.1673
 8298SOL     OW30793   7.354   2.191   3.195 -0.1511 -0.0722 -0.1726
 8298SOL    HW130794   7.269   2.231   3.161 -0.2263 -0.9553 -1.0531
 8298SOL    HW230795   7.333   2.119   3.260 -0.0718 -0.1357 -0.2173
 8300SOL     OW30796   5.803   0.719   4.023 -0.4518  0.7577 -0.1224
 8300SOL    HW130797   5.808   0.741   4.121  0.8160 -1.4538  0.3636
 8300SOL    HW230798   5.866   0.778   3.972  0.0317  0.8972  0.6230
 8301SOL     OW30799   1.595   6.776   1.414  0.4693  0.2975 -0.1992
 8301SOL    HW130800   1.535   6.845   1.452 -0.0758 -0.1053 -0.3201
 8301SOL    HW230801   1.592   6.780   1.314 -0.5471 -0.7234 -0.2278
 8306SOL     OW30802   0.337   1.695   2.444  0.1371 -0.2662  0.0264
 8306SOL    HW130803   0.292   1.726   2.528 -1.6111 -1.0924 -0.5857
 8306SOL    HW230804   0.297   1.742   2.365  1.0614 -0.2575 -0.4480
 8307SOL     OW30805   4.770   8.656   2.956 -0.0679  0.2347 -0.2017
 8307SOL    HW130806   4.763   8.715   2.876 -1.6839  2.9007  1.8087
 8307SOL    HW230807   4.813   8.707   3.031  1.4377 -2.2050  0.6488
 8308SOL     OW30808   4.945   7.561   1.971  0.4328 -0.5946  0.0835
 8308SOL    HW130809   4.928   7.599   1.880  2.5008 -0.5145 -0.2911
 8308SOL    HW230810   4.906   7.469   1.977  0.7912 -0.8272 -1.0771
 8309SOL     OW30811   8.720   3.051   3.650 -0.1128  0.3287 -0.1589
 8309SOL    HW130812   8.630   3.029   3.612 -0.9091  0.8706  1.3809
 8309SOL    HW230813   8.762   2.967   3.685 -1.0606  0.4334  1.2860
 8310SOL     OW30814   4.508   5.203   1.810  0.1422  0.4776  0.4398
 8310SOL    HW130815   4.471   5.276   1.867  1.5490  1.3177  0.2919
 8310SOL    HW230816   4.604   5.188   1.832  0.3888  0.0131 -0.8900
 8313SOL     OW30817   7.572   7.294   2.085 -0.1570  0.5574  0.3401
 8313SOL    HW130818   7.498   7.302   2.018 -0.3815 -0.7005  0.4163
 8313SOL    HW230819   7.567   7.370   2.150 -2.1238 -0.1441  1.0484
 8314SOL     OW30820   1.136   2.611   2.984 -0.1673  0.4350 -0.3273
 8314SOL    HW130821   1.093   2.582   3.069  0.7036  1.3027  0.4218
 8314SOL    HW230822   1.139   2.711   2.980  2.3397  0.4196 -0.0406
 8315SOL     OW30823   1.855   8.982   0.592  0.2856  0.4549 -0.5408
 8315SOL    HW130824   1.935   9.041   0.604  1.1803 -0.6228 -1.1230
 8315SOL    HW230825   1.884   8.895   0.552 -1.0403 -0.3302  0.1847
 8316SOL     OW30826   7.175   9.037   3.986  0.2919  0.3921 -0.3281
 8316SOL    HW130827   7.212   9.059   4.077 -0.1373 -0.1026 -0.0283
 8316SOL    HW230828   7.115   8.957   3.993  2.1718 -1.1642 -1.4652
 8318SOL     OW30829   8.140   4.984   1.976 -0.2285  0.2615 -0.5583
 8318SOL    HW130830   8.093   4.951   1.894 -0.9274  0.3155 -0.1862
 8318SOL    HW230831   8.105   5.074   2.001 -0.5871 -0.0934  0.2460
 8319SOL     OW30832   8.875   4.318   0.357 -0.2124  0.0201 -0.3923
 8319SOL    HW130833   8.927   4.247   0.406  0.9262  0.5166 -0.8688
 8319SOL    HW230834   8.809   4.360   0.420  0.1467 -0.4273  0.2917
 8320SOL     OW30835   8.208   6.848   2.928 -0.0626 -0.1347  0.0325
 8320SOL    HW130836   8.195   6.763   2.979  0.5810  0.0565  0.5153
 8320SOL    HW230837   8.293   6.844   2.876 -0.0066  0.2361  0.0920
 8321SOL     OW30838   7.928   0.727   0.283 -0.0975 -0.0578  0.2985
 8321SOL    HW130839   7.926   0.646   0.226 -0.1166  0.8698 -1.0321
 8321SOL    HW230840   7.836   0.764   0.292  0.1996  0.9849 -0.8061
 8322SOL     OW30841   6.170   9.655   3.912 -0.0913  0.0926  0.3509
 8322SOL    HW130842   6.125   9.684   3.827  0.6559 -0.6496 -0.3084
 8322SOL    HW230843   6.144   9.560   3.933  1.0044 -0.2783  0.0659
 8323SOL     OW30844   2.249   0.270   2.091  0.0310 -0.1138 -0.2301
 8323SOL    HW130845   2.313   0.337   2.054 -0.7136 -0.1340 -1.5798
 8323SOL    HW230846   2.156   0.308   2.092 -0.0063 -0.2059  1.3918
 8324SOL     OW30847   4.761   4.478   0.581 -0.1091 -0.9080  0.0089
 8324SOL    HW130848   4.802   4.550   0.525  1.0451 -2.2031 -0.8473
 8324SOL    HW230849   4.824   4.455   0.656 -0.4164 -1.1117  0.2050
 8326SOL     OW30850   4.632   9.552   0.090 -0.7047 -0.5159 -0.5289
 8326SOL    HW130851   4.613   9.457   0.114  3.0716 -1.5013 -1.0997
 8326SOL    HW230852   4.681   9.597   0.165 -0.6059  0.3390 -1.0972
 8327SOL     OW30853   2.742   2.857   2.043  0.4647  0.9490  0.3189
 8327SOL    HW130854   2.707   2.767   2.069  0.6043  0.5855 -0.7242
 8327SOL    HW230855   2.694   2.889   1.961  1.4286  1.1754 -0.1626
 8328SOL     OW30856   7.101   1.232   2.755  0.1276  0.5801 -0.2220
 8328SOL    HW130857   7.158   1.201   2.679  0.2086  1.5658 -0.5724
 8328SOL    HW230858   7.016   1.272   2.719 -0.1502  0.4050  0.2359
 8329SOL     OW30859   1.865   6.708   1.022  0.3773 -0.4933  0.2707
 8329SOL    HW130860   1.846   6.733   0.926  0.5464  0.6086  0.5171
 8329SOL    HW230861   1.960   6.678   1.030  0.7783  0.7292  0.3284
 8330SOL     OW30862   9.951   8.648   2.592  0.1002 -0.0946 -0.2960
 8330SOL    HW130863  10.050   8.647   2.574 -0.0883 -0.0676 -1.3386
 8330SOL    HW230864   9.902   8.674   2.509 -0.6964  1.6174  0.6782
 8332SOL     OW30865   9.267   7.349   3.495  0.3681  0.1445 -0.4216
 8332SOL    HW130866   9.297   7.377   3.587 -0.3819 -0.3249 -0.0306
 8332SOL    HW230867   9.327   7.392   3.427  0.3738  1.2388  0.2448
 8333SOL     OW30868   9.539   5.504   3.640  0.3518 -0.0697 -0.1071
 8333SOL    HW130869   9.469   5.575   3.637  1.1178  0.7347  0.7925
 8333SOL    HW230870   9.629   5.546   3.657  0.6679 -1.3334  1.4992
 8334SOL     OW30871   2.787   4.025   3.563 -0.2244 -0.2655  0.2104
 8334SOL    HW130872   2.781   3.938   3.613  2.9625  0.1115  1.3314
 8334SOL    HW230873   2.708   4.033   3.502 -0.1541 -4.3375 -0.5779
 8336SOL     OW30874   3.572   9.886   1.178 -0.4842  0.1820  0.3802
 8336SOL    HW130875   3.652   9.925   1.133 -1.9964  2.3205 -0.5694
 8336SOL    HW230876   3.528   9.820   1.117 -0.3841  0.2712  0.2100
 8338SOL     OW30877   6.608   9.329   2.963 -0.1367  0.5773  0.2009
 8338SOL    HW130878   6.662   9.410   2.986 -0.8298  0.6681  1.6143
 8338SOL    HW230879   6.620   9.307   2.867  1.5266  1.2544  0.2285
 8339SOL     OW30880   9.559   7.718   3.893 -0.5238 -0.0457  0.1271
 8339SOL    HW130881   9.555   7.698   3.795 -2.0919  0.5686  0.0500
 8339SOL    HW230882   9.597   7.809   3.908  1.6462 -0.9382  0.2103
 8340SOL     OW30883   9.176   5.979   2.942  0.2166  0.2106 -0.5931
 8340SOL    HW130884   9.128   5.903   2.898 -0.4018  0.2685 -0.0281
 8340SOL    HW230885   9.192   6.052   2.876 -0.0967  0.0098 -0.8887
 8341SOL     OW30886   2.425   1.408   1.396 -0.2122  0.2546 -0.1944
 8341SOL    HW130887   2.334   1.367   1.393 -0.2271  0.3303 -0.8197
 8341SOL    HW230888   2.434   1.462   1.479 -1.1234  1.1274 -0.6505
 8342SOL     OW30889   1.427   2.010   1.833 -0.0219  0.6419  0.2851
 8342SOL    HW130890   1.396   1.937   1.893 -1.1401 -0.6555 -1.8121
 8342SOL    HW230891   1.527   2.005   1.823 -0.0414 -0.2960  0.5179
 8343SOL     OW30892   1.645   6.500   1.349  0.2103  0.2990 -0.5368
 8343SOL    HW130893   1.605   6.434   1.413  2.7974 -0.2746  0.5381
 8343SOL    HW230894   1.632   6.593   1.384 -2.0950  0.3114 -1.3062
 8344SOL     OW30895   7.662   4.005   0.966  0.4648 -0.3012 -0.1923
 8344SOL    HW130896   7.742   4.059   0.940  0.4032 -0.3058 -0.3903
 8344SOL    HW230897   7.692   3.921   1.011  0.5298  0.5482  1.3807
 8345SOL     OW30898   0.404   1.220   3.451 -0.1440  0.1689  0.2033
 8345SOL    HW130899   0.466   1.158   3.402 -2.1500 -0.8409 -1.1361
 8345SOL    HW230900   0.420   1.314   3.421 -0.9478 -0.3731 -1.9976
 8346SOL     OW30901   2.275   3.698   2.581  0.0376 -0.0421  0.0842
 8346SOL    HW130902   2.237   3.750   2.658 -1.0546 -1.5887  0.6262
 8346SOL    HW230903   2.339   3.629   2.616  0.2526 -0.1268 -0.4761
 8347SOL     OW30904   1.316   4.575   2.132 -0.1027  0.0227 -0.1992
 8347SOL    HW130905   1.278   4.614   2.048 -0.9349  1.1967  0.7054
 8347SOL    HW230906   1.261   4.605   2.210  1.2946 -0.1889  0.8798
 8348SOL     OW30907   9.014   0.692   1.350 -0.0237 -0.0030 -0.6003
 8348SOL    HW130908   9.040   0.787   1.365  1.9187  0.3122 -4.9723
 8348SOL    HW230909   8.918   0.679   1.374  0.3784  2.3843  2.5236
 8349SOL     OW30910   1.603   3.557   3.812  0.3282 -0.4233 -0.4336
 8349SOL    HW130911   1.557   3.534   3.898  0.2378 -0.4394 -0.4862
 8349SOL    HW230912   1.546   3.527   3.735  0.1502  0.0945 -0.5037
 8350SOL     OW30913   3.459   8.856   2.649 -0.1178  0.0538 -0.2845
 8350SOL    HW130914   3.552   8.823   2.668 -0.2061  0.0130  0.0813
 8350SOL    HW230915   3.464   8.944   2.602  0.1099  0.1297 -0.1234
 8351SOL     OW30916   6.049   1.371   3.933 -0.4986 -0.5546 -0.2182
 8351SOL    HW130917   6.051   1.421   4.019  1.5445  0.2662 -0.7138
 8351SOL    HW230918   5.986   1.416   3.870 -0.1324  0.2808  0.0067
 8353SOL     OW30919   2.426   5.503   1.765 -0.1105 -0.1578 -0.1724
 8353SOL    HW130920   2.371   5.437   1.714 -0.6881 -0.1007  0.3856
 8353SOL    HW230921   2.494   5.543   1.703  0.6096 -1.6738 -0.3792
 8354SOL     OW30922   1.023   0.660   1.532 -0.2882  0.1663 -0.1524
 8354SOL    HW130923   0.980   0.732   1.478 -0.0704  0.0123 -0.5346
 8354SOL    HW230924   1.060   0.699   1.616  0.4180  0.6327 -0.6677
 8355SOL     OW30925   3.488   2.983   3.941 -0.1143  0.1426 -0.1262
 8355SOL    HW130926   3.427   2.928   3.999  0.3770 -1.5654 -1.1765
 8355SOL    HW230927   3.553   2.922   3.895  0.5831  1.6579 -1.1675
 8356SOL     OW30928   0.045   7.708   0.274 -0.1667 -0.2747  0.0067
 8356SOL    HW130929   0.080   7.616   0.259  1.0523  0.3718 -1.2980
 8356SOL    HW230930   0.079   7.768   0.201  0.3772  1.5527  1.7265
 8357SOL     OW30931   7.952   4.216   4.320  0.5823 -0.6415  0.1006
 8357SOL    HW130932   7.934   4.277   4.243 -0.5949 -0.1516  0.7533
 8357SOL    HW230933   8.040   4.240   4.361  0.5223  0.0765 -0.1720
 8359SOL     OW30934   7.629   2.932   0.369  0.8256 -0.1099  0.0291
 8359SOL    HW130935   7.550   2.902   0.422 -1.0230  0.0746 -2.4891
 8359SOL    HW230936   7.691   2.855   0.354  1.2751 -0.1963  2.2389
 8360SOL     OW30937   4.507   8.825   0.563 -0.3323 -0.7699 -0.4401
 8360SOL    HW130938   4.545   8.747   0.513 -0.8075 -1.0325 -0.4022
 8360SOL    HW230939   4.483   8.796   0.656  0.7339 -0.2314  0.0048
 8361SOL     OW30940   0.544   9.550   1.247 -0.0685 -0.6087 -0.1058
 8361SOL    HW130941   0.642   9.561   1.228  0.0790  0.1199  1.0271
 8361SOL    HW230942   0.510   9.631   1.295 -1.3756 -0.5939 -1.0383
 8362SOL     OW30943   4.296   8.886   3.761  0.0975 -0.5973 -0.2506
 8362SOL    HW130944   4.267   8.814   3.698  1.2663 -0.3922 -1.0406
 8362SOL    HW230945   4.367   8.942   3.717 -0.3877  0.6769  0.5703
 8363SOL     OW30946   1.893   5.747   2.054  0.0741 -0.5211  0.0834
 8363SOL    HW130947   1.954   5.813   2.010  0.1496 -1.1951 -0.8250
 8363SOL    HW230948   1.812   5.794   2.090 -0.0602  0.0042 -0.9061
 8364SOL     OW30949   7.890   2.639   0.430 -0.4116  0.1276 -0.1065
 8364SOL    HW130950   7.860   2.614   0.338  0.7187  1.4244 -0.8598
 8364SOL    HW230951   7.937   2.561   0.472 -0.2720 -0.2293 -0.9160
 8365SOL     OW30952   7.701   2.041   2.851  0.1587 -0.7907 -0.0424
 8365SOL    HW130953   7.740   2.119   2.804  0.4474 -1.2955 -0.6406
 8365SOL    HW230954   7.664   2.070   2.940 -2.0086  0.5045 -1.3248
 8366SOL     OW30955   3.102   7.694   0.587  0.1623 -0.8148  0.2747
 8366SOL    HW130956   3.136   7.772   0.640 -1.4726  0.2213 -0.1839
 8366SOL    HW230957   3.053   7.631   0.647 -0.0659 -0.5874  0.3254
 8367SOL     OW30958   2.040   8.471   1.048  0.5809 -0.2906  0.3489
 8367SOL    HW130959   1.941   8.477   1.035  0.5740 -1.7537 -0.4326
 8367SOL    HW230960   2.069   8.536   1.118 -0.8077  0.7718 -0.0478
 8368SOL     OW30961   9.945   7.114   0.825  0.3216  0.5199 -0.2761
 8368SOL    HW130962   9.932   7.048   0.750  1.6141  0.1726 -0.2004
 8368SOL    HW230963   9.862   7.117   0.881 -0.0877 -0.3613 -0.8139
 8370SOL     OW30964   9.273   8.795   0.009  0.1722  0.0483  0.2539
 8370SOL    HW130965   9.357   8.764   0.053  1.1614  1.2108 -0.7716
 8370SOL    HW230966   9.219   8.716  -0.020  1.7125 -0.7081 -0.5924
 8372SOL     OW30967   3.566   5.128   2.249 -0.2669 -0.0456  0.6537
 8372SOL    HW130968   3.500   5.127   2.324 -0.2061  1.1401  0.7266
 8372SOL    HW230969   3.630   5.203   2.261  0.1268 -0.2176 -0.2691
 8374SOL     OW30970   1.665   2.728   2.306 -0.0281  0.1386 -0.2639
 8374SOL    HW130971   1.672   2.667   2.385 -0.5129 -0.0041 -0.3292
 8374SOL    HW230972   1.717   2.689   2.229 -0.6375 -0.3742 -0.4195
 8375SOL     OW30973   0.141   1.786   0.329 -0.0030 -0.0168  0.7518
 8375SOL    HW130974   0.081   1.782   0.409 -2.1735 -2.0890 -0.8996
 8375SOL    HW230975   0.150   1.694   0.291  1.6888  0.8185 -0.8848
 8376SOL     OW30976   7.198   8.783   3.276 -0.0524 -0.0964 -0.4726
 8376SOL    HW130977   7.221   8.854   3.343 -1.4707 -0.6128  0.5725
 8376SOL    HW230978   7.247   8.801   3.190  0.2104  1.6944  0.0393
 8377SOL     OW30979   7.907   8.496   2.033  0.2069 -0.2006 -0.3196
 8377SOL    HW130980   7.893   8.422   1.968 -0.2627 -1.1829  0.8905
 8377SOL    HW230981   7.904   8.460   2.126 -0.4863  1.4061  0.2942
 8378SOL     OW30982   9.555   4.062   1.691 -0.0928 -0.2259  0.2370
 8378SOL    HW130983   9.540   3.981   1.634 -0.6078  0.9197 -1.2797
 8378SOL    HW230984   9.481   4.127   1.675  1.5741  1.5539 -0.3042
 8379SOL     OW30985   0.634   6.677   0.015 -0.1750 -0.3477 -0.0955
 8379SOL    HW130986   0.714   6.640  -0.031 -0.6812 -0.2363 -1.0727
 8379SOL    HW230987   0.551   6.651  -0.035 -0.7459 -0.3819  0.8474
 8380SOL     OW30988   6.922   1.382   2.597 -0.1165  0.0151 -0.0543
 8380SOL    HW130989   6.988   1.447   2.559 -0.5694  0.0435 -0.8142
 8380SOL    HW230990   6.839   1.431   2.624 -0.9326 -0.3728 -1.7413
 8381SOL     OW30991   0.799   5.378   1.953  0.5649 -0.2381 -0.2225
 8381SOL    HW130992   0.710   5.369   1.998  1.2837  0.6367  1.4434
 8381SOL    HW230993   0.792   5.444   1.878 -0.2898 -0.5185 -0.3976
 8383SOL     OW30994   5.144   3.798   0.094  0.0001 -0.4881 -0.2413
 8383SOL    HW130995   5.125   3.736   0.017 -4.3163 -0.5457  0.7466
 8383SOL    HW230996   5.103   3.887   0.076  3.1785  1.0681 -0.0853
 8384SOL     OW30997   0.916   0.992   4.031  0.7231 -0.2654 -0.7222
 8384SOL    HW130998   0.920   1.085   3.995 -1.3712 -0.4840 -1.6058
 8384SOL    HW230999   0.841   0.985   4.097  0.7282 -1.3576 -0.8220
 8385SOL     OW31000   0.080   4.296   2.799 -0.4961  0.1609 -0.3539
 8385SOL    HW131001   0.175   4.329   2.793 -0.2825 -0.3192  0.2308
 8385SOL    HW231002   0.058   4.242   2.718  0.2661 -1.0408  0.2113
 8386SOL     OW31003   5.452   9.745   3.714  0.0431  0.3230 -0.3592
 8386SOL    HW131004   5.532   9.805   3.716  0.4165 -0.1103 -1.5660
 8386SOL    HW231005   5.460   9.683   3.636  0.2309 -2.0786  1.5270
 8387SOL     OW31006   1.130   2.273   2.237 -0.7004 -0.4998 -0.0649
 8387SOL    HW131007   1.192   2.322   2.299 -2.4349  1.7940 -0.0606
 8387SOL    HW231008   1.065   2.220   2.291 -0.9299 -0.1206  0.0354
 8388SOL     OW31009   4.457   9.193   0.826 -0.0264  0.0775  0.7092
 8388SOL    HW131010   4.395   9.115   0.818  0.0699  0.1636 -1.0272
 8388SOL    HW231011   4.419   9.259   0.891 -2.3468  0.6058 -1.0809
 8389SOL     OW31012   8.455   5.547   2.805  0.2905 -0.3409 -0.3023
 8389SOL    HW131013   8.465   5.575   2.709 -0.3189 -1.8844 -0.8319
 8389SOL    HW231014   8.374   5.489   2.814  0.5884 -0.5488  1.0768
 8390SOL     OW31015   3.345   9.557   3.182 -0.7934  0.3303 -0.0799
 8390SOL    HW131016   3.311   9.518   3.097  1.2542 -0.2686 -0.6422
 8390SOL    HW231017   3.321   9.654   3.186 -1.7915  0.1183 -0.8541
 8392SOL     OW31018   4.739   7.499   2.996  0.8022 -0.3546  0.9066
 8392SOL    HW131019   4.643   7.488   2.971  1.0219  0.3741 -0.2902
 8392SOL    HW231020   4.756   7.456   3.085 -0.2256 -2.0389  0.3054
 8394SOL     OW31021   3.586   9.438   3.966 -0.5553  0.3516 -0.2400
 8394SOL    HW131022   3.528   9.450   3.886  0.2521 -0.2401 -0.9212
 8394SOL    HW231023   3.580   9.344   3.999  0.9321 -0.0304 -1.0410
 8395SOL     OW31024   8.907   1.020   0.097  0.2460 -0.5676  0.1143
 8395SOL    HW131025   8.856   0.988   0.017  1.4267 -0.3563 -0.7337
 8395SOL    HW231026   8.843   1.057   0.164 -0.7054  0.0189 -1.0893
 8396SOL     OW31027   0.348   9.852   2.442  0.2062  0.5471 -0.4267
 8396SOL    HW131028   0.364   9.939   2.397  1.5812  0.4315 -0.1893
 8396SOL    HW231029   0.434   9.803   2.451 -0.1496  0.2782  1.7284
 8398SOL     OW31030   0.246   5.864   2.003 -0.2741  0.2800  0.3934
 8398SOL    HW131031   0.178   5.867   1.930  0.3780  0.5613 -0.2039
 8398SOL    HW231032   0.338   5.873   1.964  0.1865 -1.2419  1.0664
 8399SOL     OW31033   8.650   0.311   0.546 -0.2262  0.2580  0.5663
 8399SOL    HW131034   8.722   0.378   0.528 -1.1258  0.5834 -2.0783
 8399SOL    HW231035   8.689   0.219   0.544  0.1489  0.4325 -0.8174
 8400SOL     OW31036   8.386   0.610   3.994  0.2669  0.3461  0.1440
 8400SOL    HW131037   8.398   0.620   4.092  0.2451  1.9992 -0.0050
 8400SOL    HW231038   8.474   0.594   3.950  0.4093  0.6403  0.3226
 8402SOL     OW31039   7.496   2.510   1.177 -0.2443 -0.4610 -0.2324
 8402SOL    HW131040   7.528   2.524   1.084  0.5027 -0.2113  0.0530
 8402SOL    HW231041   7.427   2.578   1.200  0.0999 -0.0715 -0.3599
 8403SOL     OW31042   0.438   3.514   4.223 -0.1871  0.2121 -0.4549
 8403SOL    HW131043   0.381   3.547   4.148  1.7275  2.4586 -0.9614
 8403SOL    HW231044   0.529   3.492   4.188 -0.1201 -1.4090  0.7162
 8405SOL     OW31045   9.242   5.499   1.839 -0.1848 -0.2390 -0.2232
 8405SOL    HW131046   9.180   5.569   1.802 -0.0657 -1.2216 -2.3461
 8405SOL    HW231047   9.279   5.445   1.764  1.8456 -0.8431  1.1961
 8407SOL     OW31048   2.248   8.271   1.125 -0.5674 -0.0582 -0.4488
 8407SOL    HW131049   2.160   8.309   1.153  0.4914  1.0728  1.4302
 8407SOL    HW231050   2.321   8.310   1.181  1.0946 -1.3163 -1.6773
 8408SOL     OW31051   9.260   7.516   2.003 -0.3056  0.3820  0.2514
 8408SOL    HW131052   9.295   7.610   2.008  2.3904 -0.6343  1.6675
 8408SOL    HW231053   9.169   7.512   2.044 -2.1304  3.0505 -3.2047
 8409SOL     OW31054   2.927   8.598   0.298 -0.0967 -0.0924 -0.0279
 8409SOL    HW131055   2.890   8.673   0.242  0.2409 -1.0870 -1.6239
 8409SOL    HW231056   2.864   8.579   0.373 -1.4804  0.0810 -1.1068
 8411SOL     OW31057   3.046   5.643   2.327  0.3811  0.9451  0.1858
 8411SOL    HW131058   2.956   5.686   2.323  0.1561  0.3668 -3.2319
 8411SOL    HW231059   3.094   5.660   2.240  2.5721 -0.8394  0.9992
 8412SOL     OW31060   9.602   8.366   0.452 -0.1105  0.0410 -0.4220
 8412SOL    HW131061   9.508   8.395   0.438 -0.2240 -0.9797 -1.8797
 8412SOL    HW231062   9.631   8.390   0.545 -1.8032  0.3139  0.0487
 8414SOL     OW31063   4.181   0.081   1.909  0.1840  0.2963  0.1869
 8414SOL    HW131064   4.151   0.164   1.863  1.4273  0.3723 -0.5145
 8414SOL    HW231065   4.280   0.086   1.924 -0.1480  0.1623  2.6342
 8415SOL     OW31066   3.019   7.995   0.368  0.7175 -0.1369 -0.0176
 8415SOL    HW131067   3.034   7.935   0.289  0.5522  1.2188 -1.0924
 8415SOL    HW231068   3.095   8.060   0.375 -1.3381  2.5989 -1.6932
 8416SOL     OW31069   3.104   5.840   5.635  0.6113  0.0635 -0.0343
 8416SOL    HW131070   3.199   5.849   5.607  1.0818  1.1645  1.8363
 8416SOL    HW231071   3.055   5.925   5.617  0.0856 -0.3672 -0.6360
 8417SOL     OW31072   8.560   3.178   3.229  0.0489  0.0546  0.6133
 8417SOL    HW131073   8.491   3.250   3.244  1.7880  2.1868 -1.1607
 8417SOL    HW231074   8.524   3.091   3.261 -2.2625  1.6393  2.5902
 8420SOL     OW31075   6.390   1.746   3.715  0.3025  0.6399 -0.4844
 8420SOL    HW131076   6.389   1.722   3.813  0.8820  0.2113 -0.5846
 8420SOL    HW231077   6.320   1.693   3.668 -0.5471  1.4443 -0.1716
 8421SOL     OW31078   2.659   1.059   1.463  0.4902  0.6675  0.6908
 8421SOL    HW131079   2.748   1.024   1.492  0.8685  2.9860  2.5085
 8421SOL    HW231080   2.616   1.106   1.540 -1.4933  1.2005 -0.7158
 8422SOL     OW31081   4.074   9.340   0.960 -0.3810 -0.1035 -0.7217
 8422SOL    HW131082   4.083   9.257   0.906 -1.8400 -0.8983  0.2230
 8422SOL    HW231083   4.148   9.345   1.027  0.1027 -0.2892 -1.2433
 8425SOL     OW31084   0.600   8.577   1.417  0.2295  0.0776  0.1995
 8425SOL    HW131085   0.601   8.531   1.506  0.6974  1.9985  1.2089
 8425SOL    HW231086   0.525   8.643   1.414 -1.3059 -1.7065 -1.7540
 8426SOL     OW31087   2.819   7.018   2.484 -0.7503  0.2691  0.3110
 8426SOL    HW131088   2.725   7.046   2.465 -0.3440  1.7546  0.4416
 8426SOL    HW231089   2.881   7.090   2.454  0.2662 -0.1224  1.4813
 8427SOL     OW31090   0.421   7.806   1.552 -0.0758  0.0996  0.5583
 8427SOL    HW131091   0.476   7.889   1.561  0.5573 -0.4476  1.6891
 8427SOL    HW231092   0.470   7.738   1.498 -0.4854  0.3431 -0.1389
 8429SOL     OW31093   0.100   0.919   0.625  0.2999 -0.2551  0.3426
 8429SOL    HW131094   0.180   0.868   0.595  0.1840  0.1100 -0.5912
 8429SOL    HW231095   0.129   1.005   0.668  0.4048  0.0021 -0.2373
 8430SOL     OW31096   3.513   0.166   3.424 -0.4683 -0.6228  0.0563
 8430SOL    HW131097   3.494   0.135   3.331 -0.1373  0.5838 -0.4248
 8430SOL    HW231098   3.475   0.257   3.437 -1.5086 -1.2471  1.4734
 8431SOL     OW31099   0.849   2.951   0.646 -0.0934  0.2261  0.2514
 8431SOL    HW131100   0.943   2.917   0.638 -0.2783 -0.3550  0.5488
 8431SOL    HW231101   0.842   3.014   0.723 -0.0133  0.0494  0.4019
 8432SOL     OW31102   0.366   6.954   0.584  0.1629  0.2645 -0.5670
 8432SOL    HW131103   0.296   6.987   0.647 -0.5156  0.1389 -1.2537
 8432SOL    HW231104   0.456   6.985   0.615 -0.0761 -0.4779  0.9212
 8433SOL     OW31105   9.212   3.881   3.698  0.5981 -0.0331 -0.4788
 8433SOL    HW131106   9.160   3.904   3.616  0.0670  1.6701  0.3037
 8433SOL    HW231107   9.258   3.963   3.732 -1.2609 -0.0617  2.3585
 8434SOL     OW31108   7.447   9.542   1.432  0.5645  0.2127 -0.0084
 8434SOL    HW131109   7.542   9.567   1.415  1.0039  0.1419  2.1832
 8434SOL    HW231110   7.418   9.473   1.366  1.9938  0.3494 -0.7831
 8435SOL     OW31111   9.043   9.298   0.943 -0.2933 -0.1541  0.1584
 8435SOL    HW131112   9.102   9.374   0.915  0.2581 -0.2818  0.9507
 8435SOL    HW231113   9.083   9.212   0.911  0.8016 -0.3719  2.0774
 8436SOL     OW31114   4.079   7.342   3.589 -0.3418  0.0351 -0.1435
 8436SOL    HW131115   4.113   7.273   3.526 -0.1475 -1.1937  1.2640
 8436SOL    HW231116   4.002   7.304   3.642 -0.9333  1.2544 -0.0999
 8437SOL     OW31117   2.540   8.602   0.200  0.4009  0.3117  0.4134
 8437SOL    HW131118   2.596   8.614   0.118 -1.2889 -0.0626 -0.8278
 8437SOL    HW231119   2.445   8.626   0.180  0.0093  0.4951  2.3504
 8438SOL     OW31120   0.185   3.626   3.704 -0.3800  0.3049  0.2341
 8438SOL    HW131121   0.102   3.617   3.760  0.4821  0.6261  1.5805
 8438SOL    HW231122   0.169   3.584   3.614 -1.1863 -1.8180  1.3379
 8442SOL     OW31123   3.211   8.529   2.561  0.1233 -0.4367  0.0898
 8442SOL    HW131124   3.311   8.527   2.569  0.1827  1.2386 -0.1287
 8442SOL    HW231125   3.179   8.439   2.530  1.5961 -0.8410 -0.3307
 8443SOL     OW31126   6.469   1.404   4.072  0.4916  0.4420 -0.8734
 8443SOL    HW131127   6.510   1.394   4.163  0.3402  0.7976 -0.7643
 8443SOL    HW231128   6.419   1.321   4.048 -1.8120  1.3965  0.5382
 8444SOL     OW31129   8.381   1.443   1.980  0.6427  0.3237 -0.4678
 8444SOL    HW131130   8.472   1.399   1.983  0.4957  0.0519  0.3613
 8444SOL    HW231131   8.375   1.509   2.055 -0.4999 -0.9984  0.6368
 8445SOL     OW31132   0.451   3.640   2.057 -0.1265 -0.0981  0.5373
 8445SOL    HW131133   0.499   3.557   2.086 -1.9352 -0.1680  3.5030
 8445SOL    HW231134   0.369   3.614   2.006  0.3435 -0.0821 -0.2313
 8446SOL     OW31135   1.543   1.592   0.115  0.3888  0.4455  0.0085
 8446SOL    HW131136   1.568   1.499   0.088  0.0090  0.3586 -0.0502
 8446SOL    HW231137   1.597   1.657   0.063  1.3406  0.2427  0.7438
 8447SOL     OW31138   1.093   6.526   3.311  0.2596 -0.0766  0.2729
 8447SOL    HW131139   1.128   6.616   3.335  0.8680 -0.7286  1.8912
 8447SOL    HW231140   0.993   6.527   3.313  0.2663  0.5596  0.2376
 8448SOL     OW31141   8.619   3.929   2.672  0.2857  0.0308  0.2200
 8448SOL    HW131142   8.637   4.007   2.612  0.4400 -0.2070 -0.0428
 8448SOL    HW231143   8.607   3.962   2.766  0.6038  0.3468  0.1534
 8449SOL     OW31144   1.057   5.544   3.609 -0.5727  0.4226 -0.0971
 8449SOL    HW131145   1.141   5.598   3.608  0.6516 -1.4580 -0.5949
 8449SOL    HW231146   1.027   5.532   3.704  1.4170 -1.4615  0.3202
 8450SOL     OW31147   9.495   9.949   1.777  0.3633  0.3176 -0.3826
 8450SOL    HW131148   9.501  10.018   1.705 -0.1671 -0.2270 -0.9681
 8450SOL    HW231149   9.441   9.984   1.853 -1.0018  0.1160 -1.2257
 8451SOL     OW31150   4.197   0.235   4.427 -0.2359  0.3502  0.1890
 8451SOL    HW131151   4.292   0.240   4.398 -0.8973 -1.2744 -2.4848
 8451SOL    HW231152   4.150   0.319   4.400  0.0453  0.4508  0.0079
 8452SOL     OW31153   7.910   3.951   0.176  0.4945  0.1236 -0.2039
 8452SOL    HW131154   7.899   3.858   0.139 -0.5196 -0.2442  0.9963
 8452SOL    HW231155   7.852   4.014   0.126 -0.5071 -0.2854  0.4383
 8453SOL     OW31156   1.352   0.036   2.572  0.3228 -0.5576 -0.6590
 8453SOL    HW131157   1.359   0.012   2.476 -0.7330 -1.4049 -0.5377
 8453SOL    HW231158   1.256   0.047   2.597  0.5201 -1.3742  0.5365
 8454SOL     OW31159   4.885   9.164   2.119 -0.2957  0.2327 -0.3923
 8454SOL    HW131160   4.790   9.151   2.089 -0.4480 -1.8214  0.8998
 8454SOL    HW231161   4.947   9.122   2.053 -0.3230  0.7839 -0.7731
 8456SOL     OW31162   0.227   6.163   0.203 -0.2687 -0.6072  0.3037
 8456SOL    HW131163   0.174   6.150   0.119 -2.8518  0.4393  1.7355
 8456SOL    HW231164   0.307   6.221   0.183 -2.1654  1.6630 -0.9396
 8457SOL     OW31165   0.915   9.445   3.435 -0.3450 -0.2444  0.3591
 8457SOL    HW131166   0.847   9.418   3.504 -2.1297  1.4626 -0.6570
 8457SOL    HW231167   0.883   9.417   3.344  0.8968 -0.4836 -0.0107
 8458SOL     OW31168   8.002   9.481   3.762 -0.1325 -0.2326  0.1299
 8458SOL    HW131169   8.088   9.489   3.712 -0.9742 -0.9530 -1.4548
 8458SOL    HW231170   7.928   9.522   3.709 -0.3688  2.6438  2.5925
 8459SOL     OW31171   2.058   2.822   1.028 -0.1889  0.2456 -0.0165
 8459SOL    HW131172   1.976   2.764   1.026  0.4883 -0.8040  2.1575
 8459SOL    HW231173   2.031   2.917   1.044 -1.0274  0.0037  0.0362
 8461SOL     OW31174   9.484   5.506   0.628 -0.6559 -0.6955  0.0649
 8461SOL    HW131175   9.491   5.605   0.613  1.3527 -0.8025  0.2186
 8461SOL    HW231176   9.538   5.459   0.558 -1.1096 -1.6637  0.3713
 8462SOL     OW31177   2.869   8.549   1.213  0.2688 -0.1980 -0.7218
 8462SOL    HW131178   2.929   8.626   1.191  1.5629 -1.0613 -0.2830
 8462SOL    HW231179   2.842   8.555   1.309  0.0167 -0.0579 -0.8008
 8463SOL     OW31180   8.194   6.644   3.389  0.1537 -0.6905 -0.2593
 8463SOL    HW131181   8.121   6.575   3.390 -0.4798 -0.0250 -0.3180
 8463SOL    HW231182   8.266   6.617   3.453  0.3082 -1.8385 -0.9162
 8465SOL     OW31183   4.066   9.724   3.090  0.3175 -0.5695  0.6170
 8465SOL    HW131184   4.133   9.650   3.097 -0.1591 -1.0268  0.3848
 8465SOL    HW231185   4.037   9.734   2.995 -1.6640 -1.9217  1.0463
 8466SOL     OW31186   9.270   6.562   3.462  0.0124  0.1446  0.2955
 8466SOL    HW131187   9.365   6.547   3.432 -0.0402 -0.3852  0.3872
 8466SOL    HW231188   9.268   6.632   3.533  0.2295  0.8456 -0.3778
 8467SOL     OW31189   5.075   2.245   2.983  0.5835  0.0853 -0.2362
 8467SOL    HW131190   5.062   2.334   3.027  0.7386 -0.0609  0.1081
 8467SOL    HW231191   5.165   2.208   3.008  0.0224 -0.7247  0.6170
 8469SOL     OW31192   0.063   3.019   0.690  0.0802  0.0480 -0.0555
 8469SOL    HW131193  -0.020   3.022   0.746  0.7650 -0.9032  1.0153
 8469SOL    HW231194   0.045   3.064   0.602 -1.2243  0.8597  0.6115
 8470SOL     OW31195   9.081   0.115   1.892 -0.2437 -0.3266 -0.4905
 8470SOL    HW131196   9.051   0.202   1.853 -1.4290 -0.4225  0.1599
 8470SOL    HW231197   9.174   0.123   1.927 -0.6802  0.9703  0.4282
 8472SOL     OW31198   3.105   3.662   2.600  0.0551 -0.3310 -0.3341
 8472SOL    HW131199   3.127   3.636   2.506 -0.9685 -1.5934 -0.2365
 8472SOL    HW231200   3.152   3.602   2.664 -0.8591 -0.7841 -0.0756
 8473SOL     OW31201   8.777   7.372   0.159 -0.2919 -0.0477  0.2428
 8473SOL    HW131202   8.792   7.446   0.094 -0.1676  1.0162  1.4668
 8473SOL    HW231203   8.825   7.392   0.244 -1.6321 -0.7308  1.1743
 8474SOL     OW31204   0.927   1.839   1.109  0.4292 -0.1517  0.4004
 8474SOL    HW131205   1.007   1.850   1.049 -0.6910 -1.6994 -1.4415
 8474SOL    HW231206   0.848   1.883   1.066 -0.0145  0.2171  1.5913
 8475SOL     OW31207   5.888   8.863   4.247  0.6213  0.6714 -0.2832
 8475SOL    HW131208   5.943   8.932   4.199  0.7549  0.9129  0.2190
 8475SOL    HW231209   5.847   8.801   4.180  0.4862  1.2502 -0.7441
 8476SOL     OW31210   1.679   7.556   3.800  0.1090 -0.2204  0.2454
 8476SOL    HW131211   1.659   7.465   3.836 -0.7453 -0.0504  0.2077
 8476SOL    HW231212   1.651   7.561   3.704  0.2389  0.0533  0.2213
 8477SOL     OW31213   2.102   4.595   2.414 -1.0528  0.0041 -0.0732
 8477SOL    HW131214   2.009   4.622   2.391 -0.8314  0.8379 -0.0271
 8477SOL    HW231215   2.134   4.648   2.493 -0.7159 -0.6215  0.2100
 8478SOL     OW31216   8.748   2.080   0.516 -0.1032  0.1564 -0.2948
 8478SOL    HW131217   8.732   2.007   0.450 -0.2248 -0.1435  0.0602
 8478SOL    HW231218   8.662   2.104   0.561 -0.0571  0.4919 -0.3866
 8479SOL     OW31219   1.151   1.942   1.543  0.1145 -0.1635 -0.1141
 8479SOL    HW131220   1.111   1.861   1.587 -0.2165  0.1817  0.2286
 8479SOL    HW231221   1.084   2.016   1.545  0.2329 -0.0417 -0.8882
 8480SOL     OW31222   9.022   3.271   3.952  0.7512 -0.2715  0.6836
 8480SOL    HW131223   9.019   3.179   3.990  0.0432  0.0689  1.4789
 8480SOL    HW231224   8.954   3.279   3.879  1.1923 -0.5422  0.2466
 8481SOL     OW31225   2.121   5.403   0.053  0.2368  0.6123  0.5843
 8481SOL    HW131226   2.058   5.457  -0.002 -1.2225 -1.4255  0.1832
 8481SOL    HW231227   2.204   5.385   0.002 -0.2438  0.5105 -0.1682
 8482SOL     OW31228   3.388   9.737   4.314 -0.1288 -0.1464  0.5592
 8482SOL    HW131229   3.355   9.660   4.260 -2.1935  0.7565  0.5192
 8482SOL    HW231230   3.431   9.703   4.398 -1.4985 -1.3259  0.7949
 8483SOL     OW31231   4.094   0.805   0.169 -0.2497 -0.3100  0.2896
 8483SOL    HW131232   4.163   0.835   0.234  1.9370 -0.0648 -2.0710
 8483SOL    HW231233   4.100   0.706   0.156 -1.1869 -0.4712  0.9908
 8484SOL     OW31234   1.714   1.960   1.788  0.7339  1.1064  0.5440
 8484SOL    HW131235   1.776   2.019   1.736 -0.6962  1.9333 -0.2477
 8484SOL    HW231236   1.735   1.864   1.769  0.6736  1.3993 -1.0469
 8485SOL     OW31237   1.275   7.722   3.893  0.3224  0.1397  0.1434
 8485SOL    HW131238   1.190   7.673   3.915 -0.2180  1.9443  2.2266
 8485SOL    HW231239   1.270   7.757   3.800 -2.0523  1.8731  0.8720
 8486SOL     OW31240   1.675   7.398   1.650  0.0848 -0.3505  0.1074
 8486SOL    HW131241   1.717   7.487   1.633 -3.1333  1.5337  1.4447
 8486SOL    HW231242   1.576   7.409   1.659 -0.4034 -4.1035  0.2928
 8488SOL     OW31243   9.272   2.606   4.160  0.0061 -0.3668  0.1831
 8488SOL    HW131244   9.265   2.570   4.067  2.1033 -0.5940  0.0902
 8488SOL    HW231245   9.291   2.704   4.157  1.3361 -0.6192  0.3580
 8489SOL     OW31246   3.084   9.426   0.286  0.3113 -0.6976 -0.0723
 8489SOL    HW131247   3.113   9.522   0.285 -1.5274 -0.1468 -1.8473
 8489SOL    HW231248   3.106   9.384   0.198 -0.3100 -1.4720  0.1432
 8490SOL     OW31249   4.771   6.394   2.533 -0.3882 -0.3316  0.3061
 8490SOL    HW131250   4.755   6.475   2.589 -0.5823 -0.0199 -0.1944
 8490SOL    HW231251   4.869   6.386   2.513 -0.5954  0.9559 -1.3767
 8491SOL     OW31252   1.542   9.640   1.512 -0.2709  0.3265 -0.1483
 8491SOL    HW131253   1.624   9.582   1.513 -0.2675  0.2281  3.7771
 8491SOL    HW231254   1.568   9.733   1.537 -1.1577  0.6274 -0.3593
 8492SOL     OW31255   1.365   2.694   0.311 -0.2805  0.4723 -0.0580
 8492SOL    HW131256   1.404   2.629   0.376  1.4467 -0.3271 -1.8345
 8492SOL    HW231257   1.374   2.787   0.347  0.0174 -0.0254  1.1556
 8493SOL     OW31258   0.763   7.298   1.638 -0.0910  0.0229  0.2371
 8493SOL    HW131259   0.672   7.295   1.678 -0.4055 -1.1463 -0.5225
 8493SOL    HW231260   0.768   7.372   1.570 -0.9514 -0.8601 -0.8085
 8495SOL     OW31261   2.451   9.775   3.599  0.0853  0.0577 -0.0853
 8495SOL    HW131262   2.540   9.743   3.629 -0.5513 -0.3506  1.4244
 8495SOL    HW231263   2.381   9.708   3.624 -0.8827  1.2592  0.4722
 8496SOL     OW31264   3.657   7.796   4.199  0.3835  0.5592  0.1142
 8496SOL    HW131265   3.558   7.790   4.210  0.4118 -0.5928 -0.2585
 8496SOL    HW231266   3.702   7.762   4.281  0.5256 -3.9851 -1.7017
 8497SOL     OW31267   1.146   3.513   4.061  0.0508  0.4422 -0.0204
 8497SOL    HW131268   1.102   3.587   4.111 -0.3651  0.3547 -0.2560
 8497SOL    HW231269   1.240   3.503   4.092  0.7895  2.4829 -1.4863
 8498SOL     OW31270   8.629   4.742   1.125  0.1594 -0.1555  0.4775
 8498SOL    HW131271   8.663   4.780   1.039  0.1047  0.6265  0.8026
 8498SOL    HW231272   8.540   4.700   1.110  1.3817 -2.5342 -0.4576
 8499SOL     OW31273   8.443   3.409   4.049  0.7150  0.1466  0.1112
 8499SOL    HW131274   8.421   3.494   4.099  1.3927  0.0044  0.6546
 8499SOL    HW231275   8.448   3.333   4.114  0.4151 -0.2637 -0.3380
 8500SOL     OW31276   9.811   4.757   0.033  0.2762 -0.0847  0.1400
 8500SOL    HW131277   9.736   4.735  -0.029 -0.2793  1.5251  0.2347
 8500SOL    HW231278   9.785   4.832   0.093  2.5619  1.6773 -0.9723
 8501SOL     OW31279   6.137   9.452   1.622 -0.5023  0.1699 -0.1824
 8501SOL    HW131280   6.054   9.437   1.567 -1.4571 -2.1929  1.7668
 8501SOL    HW231281   6.216   9.416   1.572 -1.3298 -1.8173 -0.1407
 8502SOL     OW31282   2.588   0.325   3.311 -0.5647 -0.7335 -0.5734
 8502SOL    HW131283   2.521   0.257   3.341  1.0886 -1.4857  1.5976
 8502SOL    HW231284   2.670   0.278   3.278  0.0272  0.1818 -0.4184
 8503SOL     OW31285   0.371   8.455   0.329 -0.0822 -0.3053 -0.5161
 8503SOL    HW131286   0.452   8.406   0.363 -1.2269 -2.0320 -0.2721
 8503SOL    HW231287   0.343   8.524   0.397 -0.3505 -1.4562  0.5523
 8504SOL     OW31288   3.774   3.767   1.030 -0.1334  0.4374  0.1423
 8504SOL    HW131289   3.741   3.721   0.947  1.5283 -0.1878 -0.1832
 8504SOL    HW231290   3.754   3.711   1.110 -1.8693  1.1055  0.2195
 8507SOL     OW31291   3.598   2.976   1.852  0.0625 -0.1828 -0.0090
 8507SOL    HW131292   3.645   2.890   1.833  0.5509  0.0743  0.0012
 8507SOL    HW231293   3.608   3.037   1.774  0.8557  0.3486  0.4894
 8508SOL     OW31294   8.211   3.891   2.974 -0.0355 -0.6023 -0.3719
 8508SOL    HW131295   8.254   3.952   3.041 -0.6623  0.1826 -0.6778
 8508SOL    HW231296   8.115   3.878   2.998  0.3208 -2.2479  0.2383
 8509SOL     OW31297   0.852   7.204   2.273 -0.0877  0.7686 -0.3181
 8509SOL    HW131298   0.900   7.140   2.332 -2.5633 -1.2964 -0.4446
 8509SOL    HW231299   0.875   7.298   2.298  1.3366 -0.1336  1.7964
 8511SOL     OW31300   3.906   8.917   0.674  0.0599 -0.2424 -0.3214
 8511SOL    HW131301   3.966   8.870   0.739 -0.9139  0.0291  0.7895
 8511SOL    HW231302   3.941   9.009   0.658 -0.4642  0.1837  0.9165
 8512SOL     OW31303   8.450   3.933   4.405  0.2055  0.4338 -0.2832
 8512SOL    HW131304   8.538   3.886   4.403  1.0827  2.0439 -0.3779
 8512SOL    HW231305   8.435   3.980   4.318 -0.1557  1.2261  0.1990
 8513SOL     OW31306   4.991   1.092   2.410 -0.1483 -0.0731 -1.2493
 8513SOL    HW131307   5.007   1.001   2.373 -0.9988 -0.0015 -1.8083
 8513SOL    HW231308   5.066   1.153   2.385 -0.2665 -0.2639 -2.0754
 8514SOL     OW31309   4.731   7.043   3.637  0.4511 -0.1920  0.8418
 8514SOL    HW131310   4.666   6.977   3.676 -0.6986 -0.1484 -0.9728
 8514SOL    HW231311   4.811   6.994   3.603 -0.1358 -0.6129  0.0409
 8515SOL     OW31312   3.464   5.905   2.447 -0.0912 -0.3187  0.2869
 8515SOL    HW131313   3.522   5.829   2.477  0.5580 -0.4071 -1.1630
 8515SOL    HW231314   3.509   5.992   2.469 -0.3796 -0.3582  1.0503
 8516SOL     OW31315   0.977   0.665   0.807 -0.6698 -0.1543  0.0964
 8516SOL    HW131316   0.939   0.577   0.837  0.5175 -0.4178  0.8639
 8516SOL    HW231317   0.952   0.682   0.712 -0.8695 -1.3478 -0.0701
 8517SOL     OW31318   7.976   1.677   1.749 -0.6309 -0.1890 -0.1583
 8517SOL    HW131319   7.995   1.679   1.651 -0.4869 -1.1320 -0.1499
 8517SOL    HW231320   8.039   1.613   1.794 -2.4919 -1.8351  0.1570
 8518SOL     OW31321   9.025   9.663   2.805 -0.7377  0.2509  0.1106
 8518SOL    HW131322   9.105   9.638   2.750 -0.5558  2.6755 -0.7639
 8518SOL    HW231323   8.949   9.602   2.782  0.7438 -1.8879  0.7456
 8519SOL     OW31324   3.545   2.509   0.840 -0.7814  0.0619 -0.0386
 8519SOL    HW131325   3.462   2.529   0.893  0.0218  2.1658  0.4933
 8519SOL    HW231326   3.550   2.572   0.763  0.4964  0.1806  0.1359
 8520SOL     OW31327   8.485   1.837   0.707 -0.3982 -0.0314 -0.2407
 8520SOL    HW131328   8.536   1.765   0.753 -1.4970 -0.0443  0.9730
 8520SOL    HW231329   8.392   1.806   0.686 -1.1275  1.2469  0.9545
 8524SOL     OW31330   1.229   0.318   1.766  0.4805  0.4033 -0.2125
 8524SOL    HW131331   1.270   0.247   1.709  3.1269  0.9413  0.9594
 8524SOL    HW231332   1.131   0.324   1.746  0.5452 -2.3587 -1.5497
 8526SOL     OW31333   9.571   4.022   1.015 -0.3023  0.1184 -0.2486
 8526SOL    HW131334   9.622   3.940   0.989 -0.9561  0.1075 -1.5009
 8526SOL    HW231335   9.473   4.006   1.005 -0.5006  0.6546  0.6835
 8527SOL     OW31336   4.675   0.058   2.802  0.0832  0.5640 -0.0745
 8527SOL    HW131337   4.770   0.055   2.770 -0.1865  0.1291 -0.8619
 8527SOL    HW231338   4.673   0.053   2.902  0.8520 -0.5629 -0.1051
 8528SOL     OW31339   5.446   7.549   1.879  0.5676 -0.6520 -0.3871
 8528SOL    HW131340   5.506   7.617   1.920  0.6293 -0.8459 -0.1516
 8528SOL    HW231341   5.499   7.468   1.854  0.4207 -0.7871 -0.2611
 8529SOL     OW31342   3.002   4.320   2.714 -0.5137  0.3928  0.4202
 8529SOL    HW131343   3.036   4.408   2.745 -0.8234  0.6085  0.1441
 8529SOL    HW231344   3.072   4.250   2.730  0.2170  0.9082 -0.5108
 8530SOL     OW31345   5.237   8.449   2.494  0.1674 -0.5249 -0.0467
 8530SOL    HW131346   5.150   8.417   2.531 -0.3748  0.1769 -0.7037
 8530SOL    HW231347   5.251   8.411   2.402 -0.7113  1.4872 -1.0272
 8531SOL     OW31348   3.768   2.770   3.203  0.3930  0.1000  0.2057
 8531SOL    HW131349   3.866   2.753   3.188  0.4399 -1.1730  1.8132
 8531SOL    HW231350   3.757   2.849   3.262  0.4749 -0.1853  0.6036
 8532SOL     OW31351   9.231   3.924   1.340 -0.3418  0.2644 -0.2063
 8532SOL    HW131352   9.283   3.864   1.279  1.2629  0.7417  0.6667
 8532SOL    HW231353   9.290   3.997   1.374 -2.3379  2.5073 -1.4320
 8534SOL     OW31354   9.580   0.245   3.682  0.0446  0.3075 -0.5078
 8534SOL    HW131355   9.645   0.245   3.606  0.3610  0.3935 -0.2359
 8534SOL    HW231356   9.491   0.212   3.649  0.5117 -0.8461 -0.6299
 8535SOL     OW31357   4.134   0.009   3.614 -0.1475  0.5995  0.0908
 8535SOL    HW131358   4.036   0.028   3.624 -0.6258 -1.0697 -1.1386
 8535SOL    HW231359   4.165   0.045   3.526 -0.2611 -1.1645 -0.6810
 8536SOL     OW31360   6.108   8.597   3.153 -0.7084  0.0372 -0.5081
 8536SOL    HW131361   6.137   8.524   3.090  0.2452 -0.3843  0.3977
 8536SOL    HW231362   6.061   8.556   3.231  0.1209  0.3549  0.1682
 8538SOL     OW31363   9.065   7.508   3.323  0.1925  0.0188  0.7228
 8538SOL    HW131364   9.091   7.471   3.234 -1.0962  2.2732 -0.6320
 8538SOL    HW231365   9.142   7.499   3.387  1.7501 -0.0475 -1.1209
 8540SOL     OW31366   8.909   5.764   1.356  0.1387  0.3051  0.3281
 8540SOL    HW131367   8.905   5.727   1.264  1.5577  0.2423  0.2877
 8540SOL    HW231368   9.004   5.769   1.386 -0.2221  1.5267  1.2988
 8541SOL     OW31369   2.040   2.078   2.034  0.7391  0.4555 -0.0762
 8541SOL    HW131370   1.957   2.024   2.021  1.6420 -0.7617 -0.8734
 8541SOL    HW231371   2.016   2.165   2.078 -0.7394 -0.5892  1.2823
 8542SOL     OW31372   8.591   6.077   0.598  0.5817 -0.7582  0.0349
 8542SOL    HW131373   8.595   6.123   0.687  3.1663  0.1341 -0.5034
 8542SOL    HW231374   8.560   6.142   0.529  0.2475 -0.9716 -0.0163
 8543SOL     OW31375   2.394   4.766   0.701  0.2584 -0.5228  0.3366
 8543SOL    HW131376   2.426   4.859   0.718 -0.6428  0.2631 -2.0693
 8543SOL    HW231377   2.298   4.757   0.727 -0.4605  0.0443 -1.9677
 8544SOL     OW31378   6.608   9.107   3.453 -0.1668 -0.0558  0.4512
 8544SOL    HW131379   6.558   9.020   3.450 -2.0410  1.0407 -1.7280
 8544SOL    HW231380   6.666   9.115   3.372  1.9273 -0.3278  1.8765
 8546SOL     OW31381   2.951   5.652   0.119  0.2789 -0.2770  0.2770
 8546SOL    HW131382   3.017   5.708   0.069  1.0190 -1.7298 -0.4300
 8546SOL    HW231383   2.872   5.633   0.060 -0.4180  0.8076  0.8499
 8547SOL     OW31384   1.045   6.169   4.301 -0.5750 -0.4300 -0.4072
 8547SOL    HW131385   1.016   6.231   4.374 -0.3622  0.1720 -0.8235
 8547SOL    HW231386   1.076   6.223   4.223  0.9761 -1.0676 -0.2442
 8548SOL     OW31387   0.548   5.976   2.643  0.5845 -0.5307 -0.6730
 8548SOL    HW131388   0.608   6.010   2.571 -0.4099  0.9211 -0.8220
 8548SOL    HW231389   0.599   5.913   2.702  1.6642 -0.9588 -2.0526
 8549SOL     OW31390   6.115   8.581   1.288  0.4522 -0.2675  0.0823
 8549SOL    HW131391   6.132   8.522   1.367  0.0990  1.2604  1.3137
 8549SOL    HW231392   6.035   8.638   1.305  1.2471  1.1305 -0.7753
 8550SOL     OW31393   8.851   6.072   3.172 -0.3418 -0.0723 -0.4721
 8550SOL    HW131394   8.794   6.006   3.220  1.3569 -1.6748 -0.6416
 8550SOL    HW231395   8.934   6.090   3.224 -0.7552  1.9264 -0.4438
 8551SOL     OW31396   4.213   2.149   3.162  0.2930 -0.3719  0.3918
 8551SOL    HW131397   4.254   2.067   3.201 -0.4921 -1.2917 -0.6998
 8551SOL    HW231398   4.122   2.128   3.127  0.3335  0.8156 -0.4693
 8552SOL     OW31399   3.784   3.193   2.024  0.0827  0.2671  0.5574
 8552SOL    HW131400   3.745   3.160   2.110 -1.0753  0.8966  0.2850
 8552SOL    HW231401   3.724   3.166   1.948 -0.0434  1.6028  0.1720
 8553SOL     OW31402   3.154   1.421   2.944 -0.6402 -0.2220 -0.0418
 8553SOL    HW131403   3.191   1.335   2.911  0.9990  1.5767 -3.1742
 8553SOL    HW231404   3.228   1.478   2.980 -1.5120  0.3706  0.8339
 8554SOL     OW31405   1.841   7.161   0.831 -0.3441 -0.4387 -0.0430
 8554SOL    HW131406   1.797   7.131   0.746  0.7959 -1.0624 -0.4333
 8554SOL    HW231407   1.940   7.169   0.815 -0.1836 -0.1143  1.1057
 8557SOL     OW31408   3.208   3.953   1.003 -0.6680  0.2285 -0.7864
 8557SOL    HW131409   3.281   4.010   1.040 -1.8369  0.5537  1.1287
 8557SOL    HW231410   3.155   3.915   1.079 -2.5674  0.1018 -2.1441
 8558SOL     OW31411   1.097   8.851   0.699 -0.2003  0.3730 -0.3306
 8558SOL    HW131412   1.168   8.861   0.768  0.1101  1.5342 -0.7969
 8558SOL    HW231413   1.137   8.820   0.613 -0.1429  1.5966 -0.7634
 8559SOL     OW31414   2.797   9.990   0.132 -1.0455 -0.0887 -0.6034
 8559SOL    HW131415   2.833   9.903   0.100 -0.1217  0.1509 -0.2238
 8559SOL    HW231416   2.779   9.985   0.231  2.2927  1.2181  0.1338
 8560SOL     OW31417   1.097   6.070   2.039  0.2460  0.3427  0.0405
 8560SOL    HW131418   1.121   6.160   2.075 -1.0138  0.3796  0.8219
 8560SOL    HW231419   1.181   6.019   2.017  0.9943  1.0750  1.1572
 8562SOL     OW31420   9.435   7.859   3.252 -0.3164 -0.4374  0.3847
 8562SOL    HW131421   9.481   7.944   3.224  0.0302 -0.3967  1.0503
 8562SOL    HW231422   9.504   7.790   3.275 -0.5888 -0.6140  0.6851
 8564SOL     OW31423   4.704   1.234   2.221 -0.1568 -0.3815  0.0129
 8564SOL    HW131424   4.738   1.162   2.161  1.4383  0.5771 -0.2515
 8564SOL    HW231425   4.725   1.211   2.316  0.7040 -0.0616 -0.1046
 8565SOL     OW31426   4.898   9.255   3.084  0.1833 -0.0025 -0.2150
 8565SOL    HW131427   4.896   9.283   2.988 -0.4030  0.4173 -0.0772
 8565SOL    HW231428   4.808   9.268   3.125  0.4676 -0.0605  0.4340
 8566SOL     OW31429   2.643   3.972   3.124 -0.0215 -0.2742 -0.6835
 8566SOL    HW131430   2.696   3.890   3.147 -2.5729 -2.3140 -1.8090
 8566SOL    HW231431   2.626   3.974   3.026  0.9239  2.2176 -0.8275
 8567SOL     OW31432   2.154   7.315   2.758 -0.2312 -0.2896  0.1235
 8567SOL    HW131433   2.183   7.255   2.684  2.1970 -0.9598  1.5675
 8567SOL    HW231434   2.186   7.408   2.741 -1.5734  0.0294 -0.7268
 8568SOL     OW31435   0.264   6.443   1.147  0.2415  0.2240  0.3479
 8568SOL    HW131436   0.264   6.366   1.212 -1.5653  0.4098  0.6068
 8568SOL    HW231437   0.190   6.430   1.081  1.1499  0.7848 -0.7835
 8569SOL     OW31438   4.101   3.923   1.524  0.7833 -0.8760 -0.3703
 8569SOL    HW131439   4.120   3.833   1.565 -0.2030 -0.9089  0.0069
 8569SOL    HW231440   4.029   3.914   1.456 -0.7972  0.0091  1.1757
 8570SOL     OW31441   9.057   2.092   4.175 -0.5289 -0.1170  0.4050
 8570SOL    HW131442   8.979   2.039   4.143 -1.9373  2.6746 -1.0380
 8570SOL    HW231443   9.137   2.071   4.119  0.0614 -3.6664  2.4692
 8571SOL     OW31444   9.750   0.268   1.175  0.1727 -0.0444 -0.2784
 8571SOL    HW131445   9.809   0.269   1.256  0.3584 -0.0244 -0.4138
 8571SOL    HW231446   9.744   0.360   1.137 -0.0745 -0.0155 -0.1726
 8572SOL     OW31447   4.326   8.376   3.631 -0.6069 -0.2503 -0.1374
 8572SOL    HW131448   4.381   8.459   3.625 -0.5078 -0.1485  1.8669
 8572SOL    HW231449   4.246   8.384   3.572 -1.4243  1.9193  1.2046
 8573SOL     OW31450   4.637   3.212   3.647 -0.3310  0.3863  0.0404
 8573SOL    HW131451   4.730   3.240   3.621 -0.3200 -0.2024 -0.5551
 8573SOL    HW231452   4.585   3.189   3.566 -0.9403  0.5222  0.3929
 8574SOL     OW31453   1.461   9.203   4.326  0.0239  0.3975  0.0337
 8574SOL    HW131454   1.475   9.274   4.395  0.3449  1.4543 -1.1145
 8574SOL    HW231455   1.441   9.116   4.372  1.4007  0.8211  1.4890
 8575SOL     OW31456   1.214   5.101   2.606  0.0267  0.1140  0.9295
 8575SOL    HW131457   1.187   5.022   2.552  0.1825  0.5574  0.1958
 8575SOL    HW231458   1.278   5.157   2.553  1.2177 -0.1342  2.0623
 8578SOL     OW31459   2.463   0.462   2.345 -0.1856  0.0493 -0.1350
 8578SOL    HW131460   2.408   0.518   2.282  1.7140  0.9347 -1.0404
 8578SOL    HW231461   2.482   0.514   2.428  0.8019  0.4372 -0.5916
 8579SOL     OW31462   7.261   9.100   1.748  0.2733 -0.1968  0.5986
 8579SOL    HW131463   7.181   9.065   1.798  2.4363 -3.0926  2.1650
 8579SOL    HW231464   7.247   9.086   1.650 -0.2394 -2.7903  0.9898
 8580SOL     OW31465   7.959   5.526   4.012 -0.2985 -0.5344 -0.0963
 8580SOL    HW131466   7.951   5.512   4.110 -0.4854 -1.1996 -0.2021
 8580SOL    HW231467   7.986   5.440   3.968 -1.8107 -0.6567 -0.8113
 8582SOL     OW31468   4.618   0.459   2.567  0.4174  0.7633  0.6396
 8582SOL    HW131469   4.565   0.544   2.560 -0.6198  0.0309 -0.8120
 8582SOL    HW231470   4.572   0.396   2.630 -1.0532 -0.2636 -1.3894
 8583SOL     OW31471   0.355   2.941   2.526 -0.0677  0.2598 -0.1189
 8583SOL    HW131472   0.438   2.944   2.581 -1.5178  2.4337  2.0979
 8583SOL    HW231473   0.367   2.878   2.449  2.5030 -1.8355  1.9165
 8584SOL     OW31474   8.010   1.590   3.804  0.1072  0.4917 -0.1614
 8584SOL    HW131475   7.917   1.555   3.793  0.0333  0.1595  1.4669
 8584SOL    HW231476   8.049   1.610   3.713 -1.4572  0.4287 -0.8658
 8585SOL     OW31477   1.131   8.695   3.069  0.7649 -0.5310  0.1031
 8585SOL    HW131478   1.156   8.767   3.004  1.0324 -1.9942 -1.4547
 8585SOL    HW231479   1.036   8.709   3.099  0.9388  0.6809  0.1045
 8586SOL     OW31480   4.118   9.870   0.431  0.2604  0.4316 -0.0167
 8586SOL    HW131481   4.209   9.898   0.462  1.1892  0.8076 -2.9007
 8586SOL    HW231482   4.064   9.952   0.410 -0.4065  0.1961  0.7865
 8587SOL     OW31483   3.770   7.851   2.800 -0.2801  0.2677  0.8244
 8587SOL    HW131484   3.823   7.834   2.718 -0.8878  1.9844  0.0347
 8587SOL    HW231485   3.829   7.889   2.872 -0.0116  0.0551  0.7131
 8588SOL     OW31486   8.224   1.243   0.808 -0.2502  0.0836  0.9769
 8588SOL    HW131487   8.168   1.266   0.729 -0.6259 -1.2146  0.8663
 8588SOL    HW231488   8.312   1.206   0.777  0.4954  1.6593  1.1537
 8589SOL     OW31489   2.572   4.503   2.319 -0.5413 -0.0892 -0.0121
 8589SOL    HW131490   2.564   4.526   2.416  0.6188  2.8403 -0.5566
 8589SOL    HW231491   2.650   4.441   2.306 -0.8038 -0.6326  0.9428
 8593SOL     OW31492   8.110   2.369   0.814 -0.0154  0.2485 -0.3788
 8593SOL    HW131493   8.199   2.395   0.779  0.3188 -0.0478  0.2412
 8593SOL    HW231494   8.080   2.436   0.882 -0.2033  0.2696 -0.4804
 8594SOL     OW31495   3.238   5.357   2.842  0.5629 -0.1455 -0.1541
 8594SOL    HW131496   3.316   5.419   2.838  1.1221 -0.8764 -0.6079
 8594SOL    HW231497   3.182   5.367   2.760 -0.2514  0.9180  0.5063
 8595SOL     OW31498   6.091   7.533   3.008  0.8602  0.3285 -0.5612
 8595SOL    HW131499   6.176   7.569   3.046  1.7448 -0.5492 -1.6787
 8595SOL    HW231500   6.065   7.450   3.057  0.4188  0.8329  0.0596
 8596SOL     OW31501   7.872   9.312   0.325 -0.0460 -0.4071 -0.1739
 8596SOL    HW131502   7.968   9.295   0.299 -0.1028  1.7227 -1.9685
 8596SOL    HW231503   7.856   9.410   0.327 -2.0969 -0.7472  0.6084
 8597SOL     OW31504   5.695   9.697   4.112  0.7135  0.2022  0.0437
 8597SOL    HW131505   5.599   9.707   4.085  0.3128 -0.9727  0.9811
 8597SOL    HW231506   5.753   9.708   4.032 -0.1776  1.3110 -0.4700
 8598SOL     OW31507   0.628   6.738   1.406 -0.0747 -0.3470  0.6766
 8598SOL    HW131508   0.622   6.836   1.420 -0.4698 -0.1756 -0.5797
 8598SOL    HW231509   0.547   6.706   1.357 -0.2553 -1.4062  1.6389
 8599SOL     OW31510   9.421   4.049   0.218 -0.1715 -0.2314  0.2651
 8599SOL    HW131511   9.468   4.019   0.135  2.8815 -1.4576  2.3133
 8599SOL    HW231512   9.420   4.149   0.221  0.3677 -0.1804 -0.8984
 8600SOL     OW31513   1.449   8.709   3.808 -0.2359  0.0577 -0.0709
 8600SOL    HW131514   1.436   8.808   3.804 -1.7797 -0.1307 -0.0130
 8600SOL    HW231515   1.388   8.670   3.877  1.3556 -0.7849  0.8988
 8601SOL     OW31516   0.532   6.440   2.339 -0.1324 -0.1787  0.1107
 8601SOL    HW131517   0.503   6.456   2.434 -1.2542  0.2639 -0.2963
 8601SOL    HW231518   0.619   6.485   2.323  0.9471 -1.7502  1.4385
 8602SOL     OW31519   1.764   2.901   1.053  0.0612 -0.0885  0.1413
 8602SOL    HW131520   1.790   2.808   1.030  1.7608  0.6334 -0.9722
 8602SOL    HW231521   1.778   2.916   1.151 -0.0553 -0.9443  0.2924
 8603SOL     OW31522   9.401   5.792   2.790 -0.1913 -0.0010  0.2281
 8603SOL    HW131523   9.448   5.873   2.755 -1.5391  2.5542  3.9556
 8603SOL    HW231524   9.321   5.772   2.733  0.6520  0.7256 -1.2312
 8604SOL     OW31525   3.366   7.405   1.479 -0.2171  0.0207  0.7275
 8604SOL    HW131526   3.387   7.498   1.452 -1.5937  0.1331  0.0125
 8604SOL    HW231527   3.364   7.399   1.579 -0.4722  0.8310  0.7749
 8605SOL     OW31528   0.743   2.863   1.795  0.4145 -0.1630  0.6500
 8605SOL    HW131529   0.745   2.861   1.695  1.7566  0.1797  0.6583
 8605SOL    HW231530   0.805   2.792   1.831  0.2946  0.0244  1.2378
 8607SOL     OW31531   3.764   8.542   3.556  0.3866  0.4911 -0.8882
 8607SOL    HW131532   3.780   8.479   3.632  0.1455 -0.2548 -1.4445
 8607SOL    HW231533   3.726   8.491   3.478 -0.9671  1.5504 -0.9316
 8608SOL     OW31534   8.403   9.255   1.928 -0.0011  0.4501  0.0028
 8608SOL    HW131535   8.304   9.244   1.935  0.0550 -0.0690 -0.0038
 8608SOL    HW231536   8.427   9.282   1.835  0.0073 -1.0909 -0.4581
 8609SOL     OW31537   1.958   9.917   2.274  0.1418  0.0769 -0.5506
 8609SOL    HW131538   1.873   9.878   2.239 -0.6270  0.2171  1.1374
 8609SOL    HW231539   1.938   9.987   2.342  1.6138 -0.4698  0.4720
 8611SOL     OW31540   4.173   6.647   1.735 -0.7379 -0.0232 -0.5949
 8611SOL    HW131541   4.144   6.709   1.808 -2.2576 -1.1948 -0.1877
 8611SOL    HW231542   4.271   6.657   1.720 -0.2390 -0.3966  2.2130
 8612SOL     OW31543   2.797   3.601   4.050 -0.0990 -0.3913  0.3036
 8612SOL    HW131544   2.850   3.571   4.130 -0.5049  1.2411  1.1948
 8612SOL    HW231545   2.773   3.697   4.060  0.3222 -0.0289 -2.0752
 8613SOL     OW31546   8.162   5.276   1.749 -0.4197 -0.5996  0.3714
 8613SOL    HW131547   8.231   5.210   1.720  0.1451 -0.1967  0.7959
 8613SOL    HW231548   8.126   5.250   1.839 -2.3290 -1.9711 -0.7564
 8614SOL     OW31549   1.028   1.569   2.301  0.8034 -0.8358 -0.3375
 8614SOL    HW131550   1.116   1.578   2.347 -0.1906 -0.7355  1.6190
 8614SOL    HW231551   1.009   1.652   2.249  0.9678 -0.0092  0.8835
 8615SOL     OW31552   0.948   9.475   0.286  0.1869  0.1941  0.2698
 8615SOL    HW131553   1.041   9.507   0.302  0.3151  0.5956 -1.1555
 8615SOL    HW231554   0.943   9.376   0.301  0.9105  0.1249  0.0598
 8616SOL     OW31555   8.230   2.326   1.260 -1.0132 -0.7897  0.1178
 8616SOL    HW131556   8.268   2.233   1.265  2.3206  0.5525  0.8457
 8616SOL    HW231557   8.197   2.353   1.350  0.1369 -0.4219  0.4326
 8617SOL     OW31558   9.716   6.350   0.333  0.4582 -0.3434  0.2973
 8617SOL    HW131559   9.768   6.321   0.253 -0.1678 -0.3407 -0.1117
 8617SOL    HW231560   9.624   6.313   0.328  0.7583 -1.2930  1.5971
 8618SOL     OW31561   0.161   0.233   3.486 -0.4862  0.2025 -0.4199
 8618SOL    HW131562   0.134   0.227   3.390  2.1704  1.5414 -1.2986
 8618SOL    HW231563   0.209   0.320   3.502 -0.9961  0.0592  2.1484
 8619SOL     OW31564   4.070   7.258   2.339  0.2558  0.0848 -0.4978
 8619SOL    HW131565   4.044   7.263   2.435  0.1369 -2.4137 -0.3684
 8619SOL    HW231566   3.989   7.272   2.282  0.0776  0.2270 -0.2104
 8621SOL     OW31567   4.622   1.840   4.100 -0.0952 -0.4501  0.6178
 8621SOL    HW131568   4.616   1.929   4.146 -0.1746  0.3182 -0.8520
 8621SOL    HW231569   4.603   1.768   4.166 -0.9133  0.6641  1.6370
 8622SOL     OW31570   9.859   6.397   1.431 -0.4129 -0.2986 -0.5486
 8622SOL    HW131571   9.773   6.410   1.380 -1.8122 -2.3002  1.2219
 8622SOL    HW231572   9.859   6.455   1.512  0.0184 -0.1288 -0.6697
 8623SOL     OW31573   2.799   7.566   3.650 -0.4374  0.0312  0.0658
 8623SOL    HW131574   2.708   7.553   3.611 -0.7732  0.9721  0.5186
 8623SOL    HW231575   2.790   7.601   3.744  0.3967  1.3628 -0.3406
 8624SOL     OW31576   0.025   0.639   4.184 -0.6400  0.1422  0.3207
 8624SOL    HW131577   0.082   0.633   4.266  0.4496 -0.6118 -0.4666
 8624SOL    HW231578   0.084   0.659   4.105 -1.7713  1.6796 -0.1619
 8625SOL     OW31579   7.925   7.314   1.854  0.1102 -0.4259 -0.8917
 8625SOL    HW131580   7.989   7.390   1.844 -0.5424  0.2687  0.0485
 8625SOL    HW231581   7.930   7.254   1.774  1.7414 -0.2430 -0.9302
 8626SOL     OW31582   3.143   4.529   2.485 -0.3730  0.2072 -0.3076
 8626SOL    HW131583   3.243   4.530   2.479 -0.3854 -2.0458 -1.5506
 8626SOL    HW231584   3.115   4.539   2.580  1.0182  0.9796  0.0384
 8628SOL     OW31585   2.755   6.968   4.183  0.1715  1.1167  0.2624
 8628SOL    HW131586   2.655   6.974   4.184  0.0089 -1.1766  1.6704
 8628SOL    HW231587   2.785   6.913   4.105  0.1347 -0.5088  1.3605
 8629SOL     OW31588   5.702   8.619   2.133 -0.3112  0.0579  0.4987
 8629SOL    HW131589   5.730   8.527   2.106 -0.1462  0.1073  0.4969
 8629SOL    HW231590   5.612   8.640   2.096 -0.3470 -0.1021  0.4960
 8630SOL     OW31591   1.952   8.432   4.008  0.4209 -0.1175 -0.1061
 8630SOL    HW131592   1.956   8.469   3.915  0.0950  0.9773  0.3169
 8630SOL    HW231593   1.873   8.372   4.016  0.1138  0.2538 -0.3639
 8631SOL     OW31594   2.536   9.536   2.744 -0.0630  0.3722 -0.1958
 8631SOL    HW131595   2.498   9.627   2.728  0.6898  0.6421 -0.4881
 8631SOL    HW231596   2.502   9.473   2.674  0.7489  0.8281 -1.0148
 8632SOL     OW31597   1.294   4.825   0.770 -0.0409  1.1318 -0.4306
 8632SOL    HW131598   1.371   4.847   0.830  1.8039 -1.3299 -1.8363
 8632SOL    HW231599   1.217   4.793   0.825  0.7086  1.4543  0.8135
 8633SOL     OW31600   5.788   7.930   2.517  0.0007 -0.7359 -0.4172
 8633SOL    HW131601   5.745   8.014   2.550 -1.0452 -1.7531  0.8231
 8633SOL    HW231602   5.851   7.953   2.442 -0.0031  1.1917  0.1308
 8634SOL     OW31603   5.726   9.028   2.575 -0.5156 -0.4780 -0.3529
 8634SOL    HW131604   5.711   8.929   2.570 -0.5899 -0.5041  0.2959
 8634SOL    HW231605   5.711   9.059   2.669 -1.0403  0.2406 -0.6655
 8636SOL     OW31606   4.303   7.580   4.286 -0.0991 -0.0541 -0.2762
 8636SOL    HW131607   4.347   7.500   4.245  1.8873  0.6402  0.4727
 8636SOL    HW231608   4.327   7.662   4.235 -0.2939  0.3706  0.3048
 8637SOL     OW31609   0.278   7.719   2.601  0.1560  0.9249  0.7386
 8637SOL    HW131610   0.342   7.643   2.599 -0.1727  0.6842 -1.3771
 8637SOL    HW231611   0.188   7.687   2.631 -0.4400  0.0770 -1.8113
 8638SOL     OW31612   5.952   9.096   3.934  0.0845  0.2268  0.1613
 8638SOL    HW131613   5.976   9.192   3.919 -4.0700  1.8195  2.6062
 8638SOL    HW231614   6.002   9.061   4.014  1.5559  0.3580 -0.6915
 8639SOL     OW31615   7.517   2.711   2.216 -0.4231 -0.2132  0.0809
 8639SOL    HW131616   7.493   2.801   2.178 -0.3983  0.0742  0.7456
 8639SOL    HW231617   7.597   2.675   2.168  0.2910  0.6547  0.6128
 8640SOL     OW31618   3.632   3.761   3.592 -0.4478  0.2764 -0.7222
 8640SOL    HW131619   3.646   3.786   3.687  0.5699  1.1353 -1.0828
 8640SOL    HW231620   3.534   3.753   3.573 -0.6269 -0.7759  0.6018
 8641SOL     OW31621   2.562   6.932   0.960 -0.1953  0.1020 -0.0267
 8641SOL    HW131622   2.497   7.004   0.986  0.2453  1.0285 -1.4458
 8641SOL    HW231623   2.630   6.969   0.897  1.8832 -0.8004  1.6404
 8642SOL     OW31624   1.711   3.664   1.948  0.1873  0.1188 -0.0346
 8642SOL    HW131625   1.671   3.659   1.856  1.4779 -1.9716 -0.4971
 8642SOL    HW231626   1.673   3.591   2.005  0.7923  0.2613  0.5544
 8643SOL     OW31627   3.593   7.688   1.089  0.4363 -0.1135  0.2730
 8643SOL    HW131628   3.496   7.666   1.102  0.5999 -0.5808  0.7297
 8643SOL    HW231629   3.646   7.604   1.080  0.8066  0.1392  0.0575
 8644SOL     OW31630   0.967   0.183   2.333 -0.2166 -0.6920 -0.1312
 8644SOL    HW131631   0.980   0.122   2.255  0.7473  1.2472 -1.5200
 8644SOL    HW231632   1.004   0.139   2.416 -0.2721 -2.3139 -0.9458
 8647SOL     OW31633   8.586   1.765   3.416 -0.1596 -0.0925 -0.1628
 8647SOL    HW131634   8.506   1.765   3.356  0.1023  2.0901 -0.5452
 8647SOL    HW231635   8.563   1.721   3.503 -1.8393  0.7152 -0.1917
 8648SOL     OW31636   4.195   3.659   1.563 -0.4874 -0.3664  0.2333
 8648SOL    HW131637   4.108   3.654   1.613 -0.6106 -1.5837 -0.0810
 8648SOL    HW231638   4.241   3.570   1.567 -0.3793 -0.4182 -1.5955
 8650SOL     OW31639   0.147   5.771   0.922  0.5763  0.3973  0.0708
 8650SOL    HW131640   0.226   5.775   0.860  0.9707  1.5931  0.6357
 8650SOL    HW231641   0.080   5.840   0.895  1.3738  1.8935  1.7961
 8651SOL     OW31642   2.645   5.391   0.874 -0.2282 -0.1330 -0.4279
 8651SOL    HW131643   2.597   5.330   0.936 -0.6866 -2.1702 -2.6863
 8651SOL    HW231644   2.689   5.337   0.802  2.4451  1.9601 -0.4471
 8652SOL     OW31645   7.392   4.042   0.979  0.3308  0.0248 -0.0747
 8652SOL    HW131646   7.341   3.968   1.023  2.7937 -1.7059 -0.0783
 8652SOL    HW231647   7.488   4.039   1.008  0.7487  2.4171 -1.0944
 8654SOL     OW31648   3.505   2.675   2.250 -0.1419 -0.4194  1.0606
 8654SOL    HW131649   3.588   2.686   2.305 -0.6010  2.3646  1.2509
 8654SOL    HW231650   3.463   2.764   2.234 -1.7856 -1.5261 -1.0975
 8655SOL     OW31651   9.433   6.049   2.670  0.0343  0.4643 -0.0455
 8655SOL    HW131652   9.359   6.036   2.604 -1.0562 -1.1909  1.4682
 8655SOL    HW231653   9.507   6.101   2.627 -0.7864 -0.3112 -2.4644
 8656SOL     OW31654   3.973   5.237   0.880 -0.2998  0.0629  0.2954
 8656SOL    HW131655   4.063   5.274   0.905 -0.4869  1.1217 -0.5766
 8656SOL    HW231656   3.936   5.184   0.957  2.0940 -2.3975 -0.1642
 8657SOL     OW31657   1.108   3.737   0.136  0.2203  0.3628  0.7381
 8657SOL    HW131658   1.186   3.754   0.196 -0.2682  2.6558  0.7715
 8657SOL    HW231659   1.105   3.641   0.112  1.6540 -0.2081  2.6960
 8658SOL     OW31660   9.720   4.554   0.227  0.6527 -0.0771  0.4030
 8658SOL    HW131661   9.658   4.598   0.162 -2.4629 -4.4892  0.1629
 8658SOL    HW231662   9.804   4.528   0.180  1.7169  3.5655  0.0958
 8659SOL     OW31663   3.140   5.272   3.336  0.5597  0.0238 -0.0784
 8659SOL    HW131664   3.106   5.343   3.399  1.4371  0.3902 -0.0077
 8659SOL    HW231665   3.106   5.290   3.244 -0.5352 -0.3769  0.2383
 8660SOL     OW31666   3.232   7.417   2.966  0.6334  0.0345 -0.5335
 8660SOL    HW131667   3.134   7.410   2.947  0.4624 -1.5327  0.8349
 8660SOL    HW231668   3.283   7.373   2.893  0.2973  0.5324 -1.0706
 8661SOL     OW31669   3.727   9.600   1.907  0.4950 -0.4100 -0.2812
 8661SOL    HW131670   3.806   9.622   1.965  1.3916 -1.1348 -1.1939
 8661SOL    HW231671   3.678   9.684   1.885  1.1799  0.0914  0.0736
 8662SOL     OW31672   8.748   9.902   3.788 -0.0177  0.2299 -0.1167
 8662SOL    HW131673   8.799   9.853   3.858 -1.4546 -0.0589  0.7609
 8662SOL    HW231674   8.663   9.938   3.828 -0.1434  1.3306 -1.3490
 8664SOL     OW31675   5.952   7.605   3.322  0.3223  0.6346  0.5964
 8664SOL    HW131676   5.946   7.648   3.232 -0.1732 -1.2853 -0.2963
 8664SOL    HW231677   6.047   7.610   3.355  0.9122 -0.3633 -0.8910
 8666SOL     OW31678   3.679   0.429   3.101 -0.3052  0.1682 -0.7158
 8666SOL    HW131679   3.755   0.477   3.058 -0.2560  1.2885  0.6192
 8666SOL    HW231680   3.698   0.415   3.198 -2.3343  1.5421 -0.0992
 8667SOL     OW31681   1.449   9.747   3.061 -0.0637 -0.3117 -0.1342
 8667SOL    HW131682   1.375   9.721   2.999  1.7772 -0.5636 -2.2910
 8667SOL    HW231683   1.466   9.672   3.125 -0.8508 -0.7323 -0.4102
 8668SOL     OW31684   8.161   4.057   0.854 -0.9646 -0.0030  0.2788
 8668SOL    HW131685   8.197   4.146   0.828  1.2336 -0.5759  1.1890
 8668SOL    HW231686   8.080   4.069   0.911 -0.4459  1.4261  0.7387
 8671SOL     OW31687   7.864   0.500   3.092 -0.7850 -0.4810  0.0818
 8671SOL    HW131688   7.816   0.573   3.044 -0.9441 -0.0586  0.8759
 8671SOL    HW231689   7.806   0.419   3.095 -1.6056  0.1366  1.3466
 8672SOL     OW31690   2.226   4.626   0.312 -0.1954  0.3924 -0.6481
 8672SOL    HW131691   2.286   4.562   0.263  1.0614  1.1386 -0.1225
 8672SOL    HW231692   2.253   4.720   0.289  0.1046  0.7490  1.0771
 8673SOL     OW31693   0.162   2.910   4.295  0.6679 -0.0919  0.0007
 8673SOL    HW131694   0.066   2.936   4.296  0.1634 -1.7775 -1.5376
 8673SOL    HW231695   0.211   2.965   4.227 -0.0603 -1.9310 -2.0794
 8674SOL     OW31696   0.938   5.821   4.039 -0.2401 -0.5781 -0.3229
 8674SOL    HW131697   0.918   5.847   4.133 -0.1674  0.5962 -0.6292
 8674SOL    HW231698   0.876   5.748   4.011  0.1921 -1.4051  0.8598
 8675SOL     OW31699   8.578   5.350   1.803  0.0266  0.1962  0.0880
 8675SOL    HW131700   8.666   5.369   1.761  0.3451 -1.7595 -0.1644
 8675SOL    HW231701   8.514   5.316   1.735 -0.6721  0.7897  0.4346
 8676SOL     OW31702   2.279   4.436   1.152  0.6307 -0.5091  0.4074
 8676SOL    HW131703   2.210   4.464   1.219 -0.3414 -1.7237 -0.0584
 8676SOL    HW231704   2.303   4.514   1.095 -0.4893 -0.0975  0.4751
 8677SOL     OW31705   0.222   9.816   1.813  0.2261 -0.3357 -0.2947
 8677SOL    HW131706   0.199   9.784   1.721  0.0286  2.2760 -1.2000
 8677SOL    HW231707   0.320   9.838   1.817  0.3431 -0.9564  0.2775
 8680SOL     OW31708   5.598   8.798   2.607  0.4590  0.0725  0.0490
 8680SOL    HW131709   5.522   8.780   2.545  1.0223  0.6826 -0.8299
 8680SOL    HW231710   5.587   8.744   2.690 -1.4404  0.8429  0.3362
 8681SOL     OW31711   3.734   4.444   1.893  0.4904  0.1140 -1.1975
 8681SOL    HW131712   3.751   4.366   1.953  1.2996  0.7863 -0.5355
 8681SOL    HW231713   3.753   4.529   1.942 -2.2327  0.8151 -1.2897
 8682SOL     OW31714   3.196   5.950   4.407 -0.7661  0.1711 -0.4955
 8682SOL    HW131715   3.240   5.945   4.497 -1.2256 -0.0953 -0.2872
 8682SOL    HW231716   3.157   5.861   4.384 -1.7825  0.5897 -0.3875
 8683SOL     OW31717   5.754   0.229   0.852  0.2900  0.3361  0.2665
 8683SOL    HW131718   5.841   0.254   0.894  0.2336 -0.1965  0.6972
 8683SOL    HW231719   5.759   0.245   0.753  0.9506  0.0959  0.2604
 8685SOL     OW31720   2.013   5.602   2.279 -0.2326  0.5487 -0.4046
 8685SOL    HW131721   1.937   5.583   2.342  1.3243 -1.2471  1.0035
 8685SOL    HW231722   1.981   5.663   2.206 -2.7567  0.6193  0.6863
 8686SOL     OW31723   0.037   0.948   2.822 -0.1836  0.4248 -0.1978
 8686SOL    HW131724   0.111   1.014   2.830 -0.5222  0.7142  0.5519
 8686SOL    HW231725  -0.014   0.965   2.737  0.6300  0.1935 -0.7332
 8687SOL     OW31726   3.949   4.735   1.388 -0.3866 -0.3880 -0.4466
 8687SOL    HW131727   3.949   4.835   1.382 -1.3514 -0.2157  1.9985
 8687SOL    HW231728   3.871   4.698   1.337 -0.9967  0.2024  0.0583
 8688SOL     OW31729   1.201   5.113   0.378 -0.2257  0.7890  0.0784
 8688SOL    HW131730   1.258   5.060   0.440 -0.3293  2.3617  1.5867
 8688SOL    HW231731   1.195   5.068   0.290  0.7469 -1.0011  0.9116
 8689SOL     OW31732   7.998   1.704   1.474 -0.3540 -0.3226  0.2630
 8689SOL    HW131733   8.009   1.740   1.381 -2.3206  1.6098  0.7186
 8689SOL    HW231734   7.952   1.615   1.470 -2.1789  0.6203 -0.5623
 8690SOL     OW31735   0.102   5.207   2.262  0.1345 -0.8016 -0.5556
 8690SOL    HW131736   0.116   5.202   2.361  1.1103 -0.7283 -0.6880
 8690SOL    HW231737   0.005   5.219   2.243 -0.0843 -1.0467  0.3872
 8692SOL     OW31738   2.537   8.602   1.117 -0.5532 -0.2792 -0.4502
 8692SOL    HW131739   2.523   8.540   1.040 -1.7551 -0.3503 -0.1766
 8692SOL    HW231740   2.619   8.657   1.101  0.3283 -1.6921 -0.8480
 8693SOL     OW31741   6.340   1.278   2.353 -0.3870  0.4243 -0.0832
 8693SOL    HW131742   6.366   1.245   2.263 -1.1888  1.5930 -0.7524
 8693SOL    HW231743   6.244   1.258   2.371 -0.1407 -0.1175  0.6580
 8694SOL     OW31744   0.933   9.473   1.396  0.2149 -0.1359 -0.0851
 8694SOL    HW131745   0.976   9.385   1.378  0.5521  0.4501 -2.2933
 8694SOL    HW231746   0.938   9.493   1.494 -0.6341 -2.9354  0.5708
 8695SOL     OW31747   2.515   4.065   4.042  0.0110  0.2560  0.5385
 8695SOL    HW131748   2.468   3.979   4.025  1.8766 -0.7106  0.1489
 8695SOL    HW231749   2.451   4.141   4.030 -0.6889 -0.8066 -3.1964
 8696SOL     OW31750   6.990   0.769   3.941 -0.6090 -0.2165 -0.2554
 8696SOL    HW131751   6.906   0.731   3.903 -1.1055 -0.9472  1.5514
 8696SOL    HW231752   7.068   0.738   3.886 -1.4011 -0.4897 -1.2329
 8698SOL     OW31753   4.082   7.764   3.438  0.0866 -0.0947 -0.2599
 8698SOL    HW131754   4.142   7.702   3.488 -1.4411  0.2289  2.0739
 8698SOL    HW231755   4.096   7.857   3.470  0.3182  0.3879 -1.7087
 8699SOL     OW31756   4.832   6.699   2.709  0.4624 -0.7129  0.2057
 8699SOL    HW131757   4.765   6.647   2.762  1.1730 -0.9643  0.8779
 8699SOL    HW231758   4.785   6.768   2.655 -0.1663  0.6552  2.4205
 8701SOL     OW31759   7.553   5.804   3.420 -0.1835  0.2822  0.1983
 8701SOL    HW131760   7.542   5.709   3.448  1.5691  0.4091  1.4048
 8701SOL    HW231761   7.619   5.810   3.345 -1.8148  0.3686 -1.2772
 8702SOL     OW31762   9.673   4.736   3.095 -0.2123 -0.2124  0.7566
 8702SOL    HW131763   9.660   4.677   3.016 -0.7461  1.7763 -0.6965
 8702SOL    HW231764   9.723   4.818   3.067  0.9819 -0.2046  2.8375
 8703SOL     OW31765   8.753   9.886   0.028  0.2567  0.3151 -0.0082
 8703SOL    HW131766   8.715   9.972   0.061 -0.5655 -0.5312  1.3067
 8703SOL    HW231767   8.756   9.887  -0.072  0.3364  1.8943  0.0019
 8704SOL     OW31768   0.178   1.164   0.728 -0.1963  0.0425  0.2452
 8704SOL    HW131769   0.178   1.198   0.822 -0.9310  2.2404 -0.5274
 8704SOL    HW231770   0.233   1.224   0.670 -2.7056  0.7950 -1.4312
 8709SOL     OW31771   4.099   3.502   2.365  0.6231  0.5396  0.1016
 8709SOL    HW131772   4.031   3.568   2.399  0.0192  0.1439 -0.3293
 8709SOL    HW231773   4.067   3.409   2.383  0.8971  0.3464 -0.4079
 8710SOL     OW31774   7.079   9.800   3.921 -0.0759  0.2287 -0.1975
 8710SOL    HW131775   7.112   9.834   3.833  2.0758 -0.7204  0.2221
 8710SOL    HW231776   7.147   9.738   3.961  0.8249  3.6337  3.9547
 8711SOL     OW31777   5.309   7.631   3.251 -0.2627 -0.0083 -0.1972
 8711SOL    HW131778   5.278   7.633   3.156 -0.7026  0.1674 -0.0521
 8711SOL    HW231779   5.408   7.643   3.254 -0.1350 -0.8774 -0.6850
 8712SOL     OW31780   0.708   0.733   2.703 -0.0182  0.1832 -0.1554
 8712SOL    HW131781   0.797   0.773   2.725  0.2001  0.1317 -0.9155
 8712SOL    HW231782   0.712   0.694   2.611 -0.7691  0.0051 -0.1107
 8713SOL     OW31783   8.092   5.541   2.590 -0.5502  0.1770 -0.6589
 8713SOL    HW131784   8.122   5.604   2.662 -0.0076 -1.0835  0.2475
 8713SOL    HW231785   8.164   5.531   2.522 -0.1736 -0.3394 -0.1934
 8714SOL     OW31786   6.502   0.500   4.214 -0.0981  0.3707 -0.3820
 8714SOL    HW131787   6.403   0.514   4.205 -0.2496 -2.1595 -3.4712
 8714SOL    HW231788   6.550   0.573   4.166 -0.5466 -0.1128 -1.5888
 8715SOL     OW31789   5.073   6.717   2.926 -0.2753 -0.0372 -0.3596
 8715SOL    HW131790   4.978   6.707   2.957  0.1274  0.1400  0.9296
 8715SOL    HW231791   5.124   6.773   2.990  0.8981 -0.7110 -0.6806
 8716SOL     OW31792   9.792   4.215   1.648  0.2103  0.3024 -0.0043
 8716SOL    HW131793   9.856   4.219   1.725  0.2615 -0.7522  0.0122
 8716SOL    HW231794   9.727   4.140   1.662  0.1136  0.2131 -0.9090
 8717SOL     OW31795   1.866   5.829   3.803  0.2963 -0.1437  0.4808
 8717SOL    HW131796   1.961   5.797   3.799  0.4941 -0.0102  3.3106
 8717SOL    HW231797   1.820   5.786   3.880 -1.0843  2.0370  0.9028
 8718SOL     OW31798   4.280   9.215   1.466 -0.7228 -0.2023  0.6926
 8718SOL    HW131799   4.300   9.273   1.545 -0.7288 -0.2016  0.6928
 8718SOL    HW231800   4.343   9.238   1.392 -2.1096  1.3284 -0.0690
 8719SOL     OW31801   9.234   5.977   4.151 -0.2326 -0.9780  0.8766
 8719SOL    HW131802   9.300   5.917   4.105  0.8044  0.2083  0.7746
 8719SOL    HW231803   9.154   5.990   4.092  0.5267 -0.4815 -0.0582
 8720SOL     OW31804   6.502   9.922   2.082 -0.4701 -0.0201 -0.5023
 8720SOL    HW131805   6.599   9.898   2.073 -1.2127 -2.0346 -4.2622
 8720SOL    HW231806   6.453   9.845   2.122 -0.9540 -0.1302 -1.3041
 8721SOL     OW31807   1.278   2.993   3.661 -0.1306  0.5482 -0.0314
 8721SOL    HW131808   1.364   2.961   3.700  1.6203  1.2502 -3.1075
 8721SOL    HW231809   1.228   3.047   3.728  0.6345 -1.9111  2.5995
 8722SOL     OW31810   8.145   4.740   0.826 -0.5132 -0.2568 -0.0884
 8722SOL    HW131811   8.128   4.819   0.885 -0.3345  1.0658 -1.7629
 8722SOL    HW231812   8.058   4.708   0.788 -0.4544 -0.1499 -0.3112
 8723SOL     OW31813   1.333   1.089   3.377  0.2082  0.0657 -0.1021
 8723SOL    HW131814   1.278   1.167   3.346 -0.0420  0.0237  0.2331
 8723SOL    HW231815   1.272   1.019   3.415  0.1792 -1.3747 -2.6594
 8724SOL     OW31816   6.332   7.598   3.098  0.1327 -0.1511 -0.7449
 8724SOL    HW131817   6.399   7.524   3.089  0.7121  0.1304  0.9731
 8724SOL    HW231818   6.317   7.617   3.195 -2.0666  0.1485 -1.1297
 8725SOL     OW31819   7.516   6.977   2.581 -0.4284  0.1546 -0.5818
 8725SOL    HW131820   7.606   7.014   2.602  0.0655 -0.9107 -0.7524
 8725SOL    HW231821   7.465   7.041   2.524 -0.1960  1.2390  0.3986
 8726SOL     OW31822   3.122   7.029   4.347 -1.1220  0.0084  0.3840
 8726SOL    HW131823   3.080   7.071   4.428 -0.5521  1.1771  0.0896
 8726SOL    HW231824   3.124   7.095   4.272 -3.0641 -1.5797 -1.0979
 8727SOL     OW31825   4.071   2.826   1.273 -0.4845  0.1558  0.1336
 8727SOL    HW131826   4.158   2.840   1.227 -1.1917  0.8147 -1.0316
 8727SOL    HW231827   4.000   2.806   1.205 -1.4733  0.7813  0.9635
 8729SOL     OW31828   9.954   8.935   3.439 -1.0753 -0.6131  0.2261
 8729SOL    HW131829   9.895   8.967   3.513 -0.2326  1.4890  0.0291
 8729SOL    HW231830   9.948   8.999   3.362  2.3781  0.3540  0.6728
 8730SOL     OW31831   9.307   4.503   3.374 -0.0688  0.3588 -0.3685
 8730SOL    HW131832   9.367   4.541   3.304  0.1074  0.4023 -0.1949
 8730SOL    HW231833   9.351   4.424   3.416 -0.2377  0.2422 -0.4081
 8731SOL     OW31834   4.200   8.309   0.944  0.5494  0.3319 -0.1254
 8731SOL    HW131835   4.111   8.340   0.913  0.9843  1.3173 -0.3844
 8731SOL    HW231836   4.191   8.268   1.035 -0.0761  0.9173  0.0755
 8734SOL     OW31837   9.144   3.364   2.925 -0.4377  0.0556 -0.2431
 8734SOL    HW131838   9.236   3.380   2.959 -1.7730  0.9027  3.1705
 8734SOL    HW231839   9.129   3.420   2.843  0.7518  3.1690  1.5570
 8735SOL     OW31840   4.514   3.173   0.365  0.7336  0.2440 -0.2889
 8735SOL    HW131841   4.434   3.114   0.359  0.5441  0.3197  1.2456
 8735SOL    HW231842   4.517   3.233   0.285 -1.8879  1.6545  0.6042
 8737SOL     OW31843   5.999   9.919   3.371 -0.2513 -0.1601 -0.1478
 8737SOL    HW131844   6.082   9.929   3.426  0.1223 -1.8367 -0.3826
 8737SOL    HW231845   6.025   9.901   3.276 -0.8888  0.5022 -0.4495
 8738SOL     OW31846   6.793   7.543   2.592  1.0531 -0.4401  0.1050
 8738SOL    HW131847   6.797   7.527   2.493 -0.1247  0.8873 -0.1896
 8738SOL    HW231848   6.875   7.592   2.621 -0.2461  2.4797 -0.9151
 8739SOL     OW31849   9.177   7.608   1.101  0.0151 -0.1507 -0.9177
 8739SOL    HW131850   9.237   7.534   1.070  1.6193  1.4127 -1.6886
 8739SOL    HW231851   9.209   7.694   1.062 -1.3899  1.0491  0.5273
 8741SOL     OW31852   2.690   8.219   1.591 -1.2503 -0.3352 -0.2051
 8741SOL    HW131853   2.674   8.201   1.494 -0.4897  1.3582 -0.6593
 8741SOL    HW231854   2.603   8.213   1.641 -1.7827 -0.3479 -1.1287
 8742SOL     OW31855   0.593   2.465   3.892  0.1271 -0.4633 -0.4601
 8742SOL    HW131856   0.579   2.416   3.979 -0.8215  0.0232 -0.3329
 8742SOL    HW231857   0.516   2.527   3.877  0.6735  0.0059 -1.2816
 8743SOL     OW31858   1.943   5.065   3.318  0.0144 -0.1724  0.0051
 8743SOL    HW131859   1.954   5.163   3.301 -0.1439 -0.3760 -1.2966
 8743SOL    HW231860   1.998   5.013   3.253 -0.0765 -0.9652  0.5463
 8744SOL     OW31861   8.023   8.102   2.488 -0.0955  0.4944  0.1917
 8744SOL    HW131862   8.107   8.155   2.499  0.7398 -0.5856 -0.8341
 8744SOL    HW231863   8.008   8.046   2.570 -0.0595  1.0248  0.5634
 8746SOL     OW31864   7.602   0.838   3.050 -0.4333 -0.0957  0.3151
 8746SOL    HW131865   7.633   0.757   3.000  0.3673  0.7050 -0.5099
 8746SOL    HW231866   7.512   0.865   3.017 -0.3719 -0.1988  0.0583
 8749SOL     OW31867   0.475   1.252   2.215  0.1159  0.3170  0.2421
 8749SOL    HW131868   0.441   1.158   2.208  0.3062  0.1352  1.4878
 8749SOL    HW231869   0.400   1.312   2.243  0.6139  0.0264  2.3319
 8750SOL     OW31870   0.810   7.874   2.480  0.4332  0.4534  0.0196
 8750SOL    HW131871   0.783   7.810   2.408 -0.7323 -0.1247  0.9609
 8750SOL    HW231872   0.759   7.855   2.564  1.9300  0.9708  1.0913
 8751SOL     OW31873   5.423   1.974   2.455 -0.0472  0.5234  0.2760
 8751SOL    HW131874   5.505   1.993   2.401 -0.1666  1.7690  0.5182
 8751SOL    HW231875   5.450   1.949   2.549  0.0787  0.2387  0.1653
 8752SOL     OW31876   2.407   8.781   0.877 -0.0431  0.8689  0.4482
 8752SOL    HW131877   2.334   8.842   0.910 -0.6462 -0.9569  2.5890
 8752SOL    HW231878   2.375   8.687   0.880  2.5984 -0.0387  2.0384
 8753SOL     OW31879   5.395   0.635   0.955 -0.1810 -0.2717  0.5336
 8753SOL    HW131880   5.490   0.614   0.934 -0.4508 -1.3153  0.3059
 8753SOL    HW231881   5.348   0.552   0.985 -1.4196 -0.1244 -0.8948
 8755SOL     OW31882   0.208   5.438   4.342  0.1288  0.3651  0.2739
 8755SOL    HW131883   0.202   5.510   4.412 -1.0767  1.2744 -0.7374
 8755SOL    HW231884   0.241   5.354   4.384  1.2431  1.4058  1.5626
 8756SOL     OW31885   8.129   1.498   1.874  0.3082 -0.0701  0.0565
 8756SOL    HW131886   8.229   1.501   1.870  0.2898 -0.0862 -0.4304
 8756SOL    HW231887   8.100   1.446   1.954  0.6883 -0.2383  0.0845
 8757SOL     OW31888   1.551   9.064   2.644  0.5010  0.3069  0.7412
 8757SOL    HW131889   1.531   9.033   2.737 -1.2107 -1.2466 -0.0934
 8757SOL    HW231890   1.650   9.060   2.628  0.6988 -0.5960  2.0940
 8758SOL     OW31891   3.383   5.311   1.749  0.8894  0.3100 -0.4891
 8758SOL    HW131892   3.431   5.330   1.664  1.3862  0.5925 -0.1481
 8758SOL    HW231893   3.373   5.396   1.802 -1.4052  0.5744 -1.2768
 8759SOL     OW31894   3.563   8.661   1.761 -0.4435 -0.1176 -0.6336
 8759SOL    HW131895   3.567   8.655   1.860 -0.2368  0.2235 -0.6215
 8759SOL    HW231896   3.586   8.573   1.721  1.7886  0.3575 -0.4378
 8760SOL     OW31897   2.477   0.804   0.021  0.1824  0.0858  0.3773
 8760SOL    HW131898   2.431   0.839   0.102 -0.0055 -1.7550  1.0877
 8760SOL    HW231899   2.575   0.823   0.027  0.0926  0.4107  0.8020
 8761SOL     OW31900   7.301   9.410   2.192  0.2633  0.2928  0.4566
 8761SOL    HW131901   7.303   9.413   2.292  1.1295  0.9385  0.4259
 8761SOL    HW231902   7.369   9.473   2.156 -2.2848  2.5091 -0.5827
 8762SOL     OW31903   8.747   6.763   3.981  0.2150  0.4782 -0.3961
 8762SOL    HW131904   8.839   6.801   3.970  0.3459  0.2417 -0.1252
 8762SOL    HW231905   8.750   6.664   3.968  0.1397  0.3657  0.4090
 8763SOL     OW31906   6.247   9.535   2.534 -0.0422  0.4226 -0.2656
 8763SOL    HW131907   6.304   9.593   2.592  0.4473  0.4552 -0.7707
 8763SOL    HW231908   6.279   9.541   2.439  1.3207 -2.2261 -0.0175
 8764SOL     OW31909   2.751   7.748   0.929 -0.6289  0.0755 -0.0024
 8764SOL    HW131910   2.686   7.760   1.004 -0.0426  1.9025  0.2397
 8764SOL    HW231911   2.783   7.838   0.898  0.6674 -0.7447 -1.0911
 8765SOL     OW31912   9.822   3.927   2.794 -0.0952 -0.0102  0.3795
 8765SOL    HW131913   9.743   3.903   2.850  1.7280 -1.1951  2.5440
 8765SOL    HW231914   9.835   3.858   2.724 -1.5952  0.7642 -0.6872
 8766SOL     OW31915   9.873   8.838   2.834 -0.5656 -0.3081 -0.0436
 8766SOL    HW131916   9.812   8.779   2.888 -0.6784  0.0812  0.2574
 8766SOL    HW231917   9.919   8.783   2.764 -2.5587 -0.3111 -1.4065
 8767SOL     OW31918   9.409   8.235   4.032  0.4593  0.2919 -0.5268
 8767SOL    HW131919   9.371   8.194   3.950  0.2549  3.2177 -1.9511
 8767SOL    HW231920   9.337   8.278   4.085  1.0763  1.5803 -0.7105
 8768SOL     OW31921   4.674   8.225   3.091  0.0802  0.0013 -0.2173
 8768SOL    HW131922   4.638   8.317   3.110 -0.8995 -0.1549 -1.2453
 8768SOL    HW231923   4.773   8.230   3.082  0.2546  0.6186  1.6634
 8771SOL     OW31924   8.749   2.490   0.369 -0.2556 -0.1997 -0.1987
 8771SOL    HW131925   8.702   2.570   0.333  0.6748  0.4901  0.0788
 8771SOL    HW231926   8.713   2.468   0.460 -1.3951 -0.8805 -0.8053
 8772SOL     OW31927   3.466   8.779   0.403 -0.1412 -0.4486 -0.1711
 8772SOL    HW131928   3.475   8.869   0.360 -1.2786  0.3311  1.1514
 8772SOL    HW231929   3.547   8.760   0.457  0.7109 -0.8414 -1.5835
 8773SOL     OW31930   8.060   6.805   1.796  0.2025  0.4400  0.5466
 8773SOL    HW131931   8.024   6.712   1.805  1.0007  0.2181  1.5986
 8773SOL    HW231932   8.024   6.863   1.868  0.4329  0.7087  0.4499
 8774SOL     OW31933   0.410   6.801   3.319  0.0834 -0.1062 -0.3278
 8774SOL    HW131934   0.411   6.889   3.366  3.7296 -0.5208  0.5152
 8774SOL    HW231935   0.429   6.728   3.384 -1.2622 -1.3464 -1.3107
 8775SOL     OW31936   0.636   1.761   0.226 -0.3232  0.1818  0.1291
 8775SOL    HW131937   0.683   1.682   0.265  0.7083  0.0620 -1.2917
 8775SOL    HW231938   0.690   1.797   0.149 -0.2556  2.8832  1.3592
 8776SOL     OW31939   2.424   2.713   4.023  0.3284  0.6172  0.3472
 8776SOL    HW131940   2.509   2.667   4.050  0.0954  0.4922  0.8740
 8776SOL    HW231941   2.373   2.740   4.105 -1.1391 -1.1675  0.0521
 8777SOL     OW31942   1.532   6.429   1.764 -0.3471 -0.9818  0.2014
 8777SOL    HW131943   1.513   6.346   1.711 -0.5062 -0.6559 -0.2448
 8777SOL    HW231944   1.496   6.509   1.716  1.8997 -0.3757 -0.5073
 8779SOL     OW31945   8.526   4.271   2.398 -0.7204  0.1641  0.1880
 8779SOL    HW131946   8.575   4.219   2.329  0.0263 -0.4248  1.1439
 8779SOL    HW231947   8.479   4.348   2.355 -0.0868 -0.0644 -0.9348
 8780SOL     OW31948   9.159   4.063   1.870  0.1093  0.1207 -0.5110
 8780SOL    HW131949   9.213   4.085   1.952 -0.1300  1.4356 -0.6902
 8780SOL    HW231950   9.195   3.980   1.828  1.7637  0.7676 -0.4086
 8781SOL     OW31951   0.834   4.963   1.979 -0.3866 -0.5485 -0.1285
 8781SOL    HW131952   0.811   4.898   1.906 -0.8550  1.0792 -1.4477
 8781SOL    HW231953   0.751   5.003   2.015  0.0963  2.8543 -2.6078
 8783SOL     OW31954   0.535   4.461   3.091 -0.2775 -0.5423  0.0372
 8783SOL    HW131955   0.562   4.416   3.006 -0.0169 -0.6758  0.1917
 8783SOL    HW231956   0.609   4.520   3.123 -0.5600 -0.1161 -0.0850
 8784SOL     OW31957   4.646   3.359   4.068  0.5819  0.1968 -0.3613
 8784SOL    HW131958   4.662   3.261   4.079 -0.5953 -0.0539 -0.8816
 8784SOL    HW231959   4.604   3.377   3.979 -2.2640  0.8002  1.0333
 8785SOL     OW31960   5.819   0.190   2.250  0.6130  0.4052 -0.0372
 8785SOL    HW131961   5.816   0.198   2.350  0.3714  0.8649 -0.0804
 8785SOL    HW231962   5.898   0.240   2.215 -0.2794  1.7184 -0.2148
 8786SOL     OW31963   7.269   9.758   1.365 -0.3088  0.0190 -0.0282
 8786SOL    HW131964   7.347   9.696   1.362 -0.1592  0.0413  2.1241
 8786SOL    HW231965   7.261   9.807   1.278  3.1512  1.3353  0.3054
 8787SOL     OW31966   5.654   7.293   2.340  0.1596  0.0175  0.4011
 8787SOL    HW131967   5.722   7.348   2.291 -1.5933  1.2397 -0.7432
 8787SOL    HW231968   5.595   7.354   2.395 -0.2436 -0.9700  1.0755
 8789SOL     OW31969   8.403   0.333   1.672  0.2909  0.2950 -0.0467
 8789SOL    HW131970   8.391   0.428   1.644 -0.3220  0.3394  0.3696
 8789SOL    HW231971   8.490   0.323   1.720  0.7793  0.4643 -0.8886
 8790SOL     OW31972   3.420   8.678   0.740 -0.1509 -0.2051 -0.1329
 8790SOL    HW131973   3.414   8.778   0.746  0.1117 -0.1419 -0.8923
 8790SOL    HW231974   3.504   8.652   0.692 -0.6951 -0.7695 -0.7888
 8791SOL     OW31975   3.107   1.871   2.024 -0.0983  0.5360  0.0048
 8791SOL    HW131976   3.064   1.813   1.955 -3.4596  0.5445  1.9947
 8791SOL    HW231977   3.159   1.815   2.088  2.0183  0.4239 -1.7178
 8792SOL     OW31978   5.893   0.842   4.249  0.2810 -0.1797 -0.1092
 8792SOL    HW131979   5.989   0.844   4.223 -0.4096  0.2412 -2.8356
 8792SOL    HW231980   5.878   0.770   4.317  2.3715 -0.8179 -0.2980
 8793SOL     OW31981   3.348   8.846   3.389  0.5779  0.4177  0.2527
 8793SOL    HW131982   3.357   8.929   3.444 -1.3723  0.4011  0.6262
 8793SOL    HW231983   3.299   8.777   3.441  1.0546 -0.5259 -0.5410
 8795SOL     OW31984   5.466   1.146   2.814 -0.5235 -0.3963 -0.0722
 8795SOL    HW131985   5.514   1.167   2.899  0.6539 -1.0507 -0.5652
 8795SOL    HW231986   5.454   1.047   2.806 -0.2343 -0.3713 -0.8783
 8796SOL     OW31987   7.983   3.836   2.178 -0.8873 -0.0437 -0.5743
 8796SOL    HW131988   8.067   3.783   2.192 -0.8211  0.4505  0.9906
 8796SOL    HW231989   7.953   3.874   2.265 -2.3364  0.4016 -1.2571
 8797SOL     OW31990   1.408   8.772   1.389 -0.5744 -0.9866 -0.6832
 8797SOL    HW131991   1.394   8.760   1.291  0.1072 -1.8323 -0.6906
 8797SOL    HW231992   1.435   8.684   1.430 -0.8140 -0.6333  0.2504
 8798SOL     OW31993   4.848   2.176   3.433 -0.2460 -0.1342  0.5169
 8798SOL    HW131994   4.898   2.147   3.515  0.8327 -0.8794 -0.3969
 8798SOL    HW231995   4.830   2.097   3.375  1.0587  0.7161 -1.0876
 8799SOL     OW31996   9.131   3.023   2.983  0.1882  0.1712  0.2296
 8799SOL    HW131997   9.114   2.925   2.971 -1.0454  0.3373  0.6410
 8799SOL    HW231998   9.162   3.040   3.076  0.9866  0.1069 -0.0133
 8800SOL     OW31999   5.264   6.874   1.852 -0.9770  0.3604  0.1746
 8800SOL    HW132000   5.200   6.950   1.867  1.5031  2.2735  1.5721
 8800SOL    HW232001   5.327   6.898   1.778  0.2417  0.0110  1.0643
 8801SOL     OW32002   0.690   9.889   2.756  0.0682 -0.4408 -0.1030
 8801SOL    HW132003   0.662   9.897   2.660  1.2046  0.3253 -0.3857
 8801SOL    HW232004   0.615   9.916   2.815 -0.1474  0.5988 -0.8263
 8802SOL     OW32005   0.740   9.746   3.510 -0.4318 -0.0117 -0.4313
 8802SOL    HW132006   0.721   9.714   3.417 -2.9374  0.0121  0.0259
 8802SOL    HW232007   0.835   9.776   3.517  0.1613 -1.2804 -2.6114
 8803SOL     OW32008   9.445   3.393   4.366 -0.0503 -0.1247 -0.1488
 8803SOL    HW132009   9.543   3.402   4.384 -0.4453  0.9834  1.4880
 8803SOL    HW232010   9.411   3.310   4.409 -0.0579  0.0684  0.2144
 8804SOL     OW32011   3.502   3.642   1.505  0.3268  0.1656  0.0779
 8804SOL    HW132012   3.546   3.614   1.590 -0.0333 -0.1876  0.1477
 8804SOL    HW232013   3.563   3.623   1.428  0.1294 -0.7015  0.1356
 8805SOL     OW32014   6.358   8.775   3.149 -0.1251 -0.1991 -0.1834
 8805SOL    HW132015   6.265   8.746   3.127  0.0812 -2.2689  1.6533
 8805SOL    HW232016   6.423   8.702   3.126  1.0576  1.1518 -1.2757
 8806SOL     OW32017   0.493   7.141   1.723  0.5082 -0.4891 -0.3554
 8806SOL    HW132018   0.503   7.189   1.810  1.3537  1.6295 -1.5898
 8806SOL    HW232019   0.413   7.176   1.675  1.3182 -0.0716 -1.4123
 8809SOL     OW32020   3.586   9.366   1.108 -0.3796  0.2964  0.2149
 8809SOL    HW132021   3.547   9.316   1.030 -1.8545  0.5740  0.7711
 8809SOL    HW232022   3.673   9.323   1.134 -0.2168 -0.2251 -1.1356
 8810SOL     OW32023   3.151   6.541   3.114  0.3013 -0.0532 -0.3609
 8810SOL    HW132024   3.102   6.567   3.031  0.1752 -0.7135 -0.4955
 8810SOL    HW232025   3.118   6.452   3.146  0.9306 -0.1890 -0.0778
 8811SOL     OW32026   0.245   4.226   4.242  0.2494  0.8697  0.0701
 8811SOL    HW132027   0.295   4.246   4.158  0.6764 -0.9586 -0.1266
 8811SOL    HW232028   0.162   4.176   4.220  0.4420  0.2414  0.7467
 8813SOL     OW32029   8.125   0.320   1.557  0.2998 -0.4568 -0.3784
 8813SOL    HW132030   8.078   0.398   1.597  0.2568 -0.9816  0.5921
 8813SOL    HW232031   8.218   0.314   1.595  0.1305 -1.1715 -0.0753
 8814SOL     OW32032   4.493   1.997   1.303 -0.0096 -0.1007 -0.6411
 8814SOL    HW132033   4.417   2.008   1.238  0.1378  1.1875 -0.6036
 8814SOL    HW232034   4.540   1.911   1.283  0.2279  0.4235 -2.4590
 8815SOL     OW32035   2.048   5.979   1.659  0.2221 -0.0118  0.2079
 8815SOL    HW132036   2.083   6.007   1.570 -2.4344  0.8304 -0.6077
 8815SOL    HW232037   2.051   6.056   1.722  0.4613 -0.1283  0.3414
 8816SOL     OW32038   4.557   0.448   0.837 -0.2053 -0.0880  0.4278
 8816SOL    HW132039   4.536   0.350   0.846  0.3540 -0.1411  1.2817
 8816SOL    HW232040   4.472   0.500   0.841 -0.3686 -0.4251  1.8757
 8818SOL     OW32041   7.845   7.647   2.657 -0.0357  0.3761 -0.2271
 8818SOL    HW132042   7.825   7.671   2.562 -0.2896 -1.9043 -0.7848
 8818SOL    HW232043   7.794   7.708   2.719 -0.2659  1.5442 -1.5500
 8820SOL     OW32044   9.049   9.537   3.424  0.6776  0.5948 -0.0580
 8820SOL    HW132045   9.105   9.540   3.507  0.7972  0.1068 -0.1220
 8820SOL    HW232046   8.992   9.620   3.420 -1.4545 -0.7026  1.9787
 8822SOL     OW32047   7.989   9.545   2.696 -0.3549 -0.1638 -0.0367
 8822SOL    HW132048   8.036   9.487   2.763 -0.6361  0.6234  0.8545
 8822SOL    HW232049   8.021   9.639   2.705 -1.5383  0.2429  0.0701
 8824SOL     OW32050   2.469   6.883   2.246  0.4083  0.8986  0.0203
 8824SOL    HW132051   2.465   6.797   2.296 -0.5196  1.2608  0.5794
 8824SOL    HW232052   2.419   6.873   2.159  0.0890  0.9470  0.1979
 8825SOL     OW32053   9.770   1.747   1.629 -0.0571 -0.3846 -0.3973
 8825SOL    HW132054   9.690   1.776   1.682 -0.7429  0.1872 -1.7000
 8825SOL    HW232055   9.756   1.653   1.596  0.4038 -0.7676  0.4996
 8826SOL     OW32056   2.021   0.775   1.127 -0.8803 -0.4196 -0.0393
 8826SOL    HW132057   2.090   0.734   1.186 -2.9510 -3.0638  0.6407
 8826SOL    HW232058   2.022   0.874   1.138  1.0001 -0.6254  1.9382
 8827SOL     OW32059   2.991   8.280   2.680 -0.0070 -0.4252  0.4945
 8827SOL    HW132060   3.007   8.192   2.725  0.4532  0.1100  1.3964
 8827SOL    HW232061   3.029   8.278   2.588  0.0617 -1.1457  0.5375
 8829SOL     OW32062   9.908   2.756   4.152  0.4285 -0.5795 -0.0160
 8829SOL    HW132063   9.841   2.715   4.090 -0.0633 -0.0406  0.1657
 8829SOL    HW232064   9.968   2.684   4.188  0.4874 -0.9450 -0.8280
 8830SOL     OW32065   9.487   7.110   1.444  0.3674  0.3752  0.2466
 8830SOL    HW132066   9.454   7.186   1.500 -0.3876 -0.6110  1.1586
 8830SOL    HW232067   9.423   7.033   1.451  1.4302 -0.5586 -0.1956
 8832SOL     OW32068   2.778   1.532   1.228  0.0639 -0.0747  0.4408
 8832SOL    HW132069   2.731   1.561   1.312  1.3861  0.1245  1.1245
 8832SOL    HW232070   2.756   1.595   1.154  0.2511  0.7375  1.0724
 8833SOL     OW32071   8.149   9.253   0.274  0.3803 -0.3191  0.4576
 8833SOL    HW132072   8.246   9.279   0.276  1.1263 -2.8678 -0.9095
 8833SOL    HW232073   8.140   9.156   0.297 -1.5776 -0.8312 -2.2392
 8834SOL     OW32074   5.008   1.350   3.533 -0.0021  0.3460 -0.2429
 8834SOL    HW132075   4.988   1.442   3.502  0.5648  0.8763  0.9063
 8834SOL    HW232076   5.006   1.347   3.633  0.3276 -0.8044 -0.2533
 8835SOL     OW32077   8.888   9.316   4.436 -0.3439  0.0845 -0.8098
 8835SOL    HW132078   8.932   9.304   4.525 -1.4298 -0.6387 -0.3426
 8835SOL    HW232079   8.945   9.372   4.377  1.4833 -1.3435 -0.4469
 8836SOL     OW32080   1.367   6.729   1.186 -0.4803  0.3513  0.0000
 8836SOL    HW132081   1.296   6.711   1.118  0.0719 -2.9338  0.2131
 8836SOL    HW232082   1.453   6.752   1.140 -0.5595 -0.0849 -0.3642
 8837SOL     OW32083   1.136   2.726   2.300 -0.3785 -0.6918  0.1462
 8837SOL    HW132084   1.077   2.695   2.375 -0.5750 -1.9613 -0.5101
 8837SOL    HW232085   1.211   2.662   2.289 -0.0014 -0.1675 -0.3363
 8838SOL     OW32086   3.117   9.671   1.612  0.0898 -0.1727 -0.1561
 8838SOL    HW132087   3.122   9.650   1.710  2.3577 -0.5838 -0.3459
 8838SOL    HW232088   3.206   9.654   1.570 -0.6068  0.9663 -2.1099
 8839SOL     OW32089   1.272   0.097   0.799  0.1896  0.4201  0.0750
 8839SOL    HW132090   1.198   0.145   0.846  1.3157  1.6304  0.6176
 8839SOL    HW232091   1.286   0.138   0.709  1.7487  1.7007  0.8902
 8840SOL     OW32092   2.394   1.831   1.566  1.1330  0.3111  0.5853
 8840SOL    HW132093   2.364   1.914   1.613 -0.6080  0.1734 -0.2329
 8840SOL    HW232094   2.475   1.852   1.511  0.7155  1.4686  0.3934
 8841SOL     OW32095   9.098   2.936   3.752 -0.0324  0.2220  0.4059
 8841SOL    HW132096   9.059   2.953   3.661  0.5170  0.3900  0.1992
 8841SOL    HW232097   9.191   2.901   3.743  0.2219  0.7518  0.9103
 8842SOL     OW32098   5.164   8.441   3.503  0.3331 -0.5738 -0.2320
 8842SOL    HW132099   5.091   8.451   3.571  1.4993 -0.8988  1.0775
 8842SOL    HW232100   5.125   8.452   3.411 -1.3139 -0.4600  0.4588
 8843SOL     OW32101   5.996   9.501   3.322  0.4355  0.1374 -0.0579
 8843SOL    HW132102   5.967   9.407   3.339  1.4465  0.2464  2.5285
 8843SOL    HW232103   5.940   9.541   3.250  0.9329 -2.8939 -2.2129
 8844SOL     OW32104   1.339   1.769   1.937 -0.1796 -0.5930  0.3384
 8844SOL    HW132105   1.244   1.784   1.964 -0.4112  0.1904 -0.9103
 8844SOL    HW232106   1.344   1.693   1.872 -0.1854  0.5680 -1.0384
 8845SOL     OW32107   6.629   8.623   2.427 -0.3031 -0.2521  0.3481
 8845SOL    HW132108   6.553   8.561   2.444 -0.2350 -0.2562  0.6509
 8845SOL    HW232109   6.678   8.639   2.513 -1.3622  1.5934  0.6368
 8846SOL     OW32110   4.958   7.895   1.184  0.1537 -0.1078  0.6368
 8846SOL    HW132111   4.885   7.943   1.135  2.6241  1.5279 -1.5857
 8846SOL    HW232112   4.919   7.842   1.259 -3.3129  0.5726 -0.6099
 8847SOL     OW32113   1.163   6.930   1.636 -0.3696  0.6104  0.4303
 8847SOL    HW132114   1.152   6.842   1.591  0.5059  0.7434 -0.0533
 8847SOL    HW232115   1.092   6.993   1.604  0.4643  0.8161 -1.0422
 8849SOL     OW32116   8.259   2.927   4.342  0.0683  0.7534 -0.0728
 8849SOL    HW132117   8.334   2.969   4.291  2.1202  0.2427  2.4462
 8849SOL    HW232118   8.277   2.829   4.352 -1.3016  0.4996 -0.0453
 8850SOL     OW32119   7.536   8.833   2.227 -0.2290  0.3503  0.6554
 8850SOL    HW132120   7.623   8.813   2.272  0.9840 -0.7420 -2.0692
 8850SOL    HW232121   7.476   8.753   2.231 -0.4949  0.5755  1.1696
 8851SOL     OW32122   0.399   5.738   3.972  0.3487 -0.2101  0.1820
 8851SOL    HW132123   0.372   5.821   3.923  1.7529  0.6458  0.7928
 8851SOL    HW232124   0.388   5.659   3.913 -1.8918  0.2997 -0.0961
 8852SOL     OW32125   8.769   1.194   1.932 -0.0243 -0.0232  0.4437
 8852SOL    HW132126   8.719   1.209   1.847  0.4218  0.7746  0.3217
 8852SOL    HW232127   8.791   1.096   1.940 -2.8476 -0.6330  1.2065
 8853SOL     OW32128   4.706   0.705   0.412  0.1513 -0.9902  0.0842
 8853SOL    HW132129   4.630   0.674   0.355 -0.8496 -0.2628  0.9854
 8853SOL    HW232130   4.751   0.783   0.368 -0.8184 -0.2249  0.4176
 8854SOL     OW32131   2.268   4.140   1.455 -0.4073  0.4377  0.2393
 8854SOL    HW132132   2.261   4.073   1.382 -0.2743  2.8833 -2.1268
 8854SOL    HW232133   2.182   4.146   1.505 -1.1224  0.0475 -0.9377
 8855SOL     OW32134   9.335   4.823   4.225 -0.0180 -0.0600 -0.3589
 8855SOL    HW132135   9.265   4.823   4.296  0.8237 -0.6890  0.4773
 8855SOL    HW232136   9.426   4.825   4.266  0.4731  0.3378 -1.4265
 8856SOL     OW32137   9.209   2.124   3.182 -0.2639 -0.2116 -0.4814
 8856SOL    HW132138   9.127   2.128   3.125  0.2805 -0.3051 -1.2864
 8856SOL    HW232139   9.211   2.036   3.231 -1.3328  0.3541  0.6085
 8858SOL     OW32140   1.258   3.622   1.250 -0.5723  0.1212  0.1900
 8858SOL    HW132141   1.338   3.563   1.241  0.2113  1.3183 -0.8984
 8858SOL    HW232142   1.204   3.619   1.166  0.1781  1.9271 -0.3863
 8859SOL     OW32143   9.023   0.787   3.458 -0.5221  0.2387  0.1745
 8859SOL    HW132144   9.045   0.836   3.543 -0.5688  0.1629  0.2305
 8859SOL    HW232145   9.036   0.848   3.380 -1.1415  0.5165  0.2881
 8860SOL     OW32146   0.052   4.351   3.099 -0.4786 -0.6074  0.3489
 8860SOL    HW132147   0.098   4.426   3.147 -0.1171 -0.5486 -0.0896
 8860SOL    HW232148   0.059   4.364   3.000  0.2828 -1.6304  0.2556
 8861SOL     OW32149   8.197   2.635   0.389  0.1590 -0.1065  0.2018
 8861SOL    HW132150   8.111   2.621   0.437  0.1298 -1.1004 -0.1310
 8861SOL    HW232151   8.262   2.682   0.449 -0.2790 -0.2564  0.7897
 8862SOL     OW32152   4.223   7.029   2.699  0.2951  0.0889 -0.4590
 8862SOL    HW132153   4.199   6.954   2.637 -1.7282  1.2659 -1.1789
 8862SOL    HW232154   4.142   7.054   2.753  1.1443  1.2961  0.2808
 8863SOL     OW32155   6.782   8.495   3.004  0.1700 -0.1972 -0.2496
 8863SOL    HW132156   6.802   8.401   2.976 -1.9090  0.1107 -2.9862
 8863SOL    HW232157   6.846   8.557   2.960 -0.5466 -0.0723 -1.1437
 8864SOL     OW32158   7.114   8.325   2.537  0.6964  0.5733  0.1776
 8864SOL    HW132159   7.209   8.342   2.561  0.4538  1.5170  0.4784
 8864SOL    HW232160   7.104   8.230   2.508  1.8383  0.6337 -0.4439
 8865SOL     OW32161   9.294   3.992   0.897 -0.2029 -0.1618 -0.0691
 8865SOL    HW132162   9.302   3.953   0.805 -3.9002  1.4079 -1.1621
 8865SOL    HW232163   9.213   3.953   0.942 -1.1942  2.5986  0.6211
 8866SOL     OW32164   0.109   6.590   3.826  0.4253  0.1149  0.2979
 8866SOL    HW132165   0.085   6.493   3.834  0.9819 -0.0538 -0.0173
 8866SOL    HW232166   0.064   6.642   3.899  1.1286 -0.5638  1.2230
 8867SOL     OW32167   3.930   0.785   3.351 -0.1271 -0.2204  0.1645
 8867SOL    HW132168   3.852   0.751   3.403  0.5331 -0.3725  1.0509
 8867SOL    HW232169   3.976   0.857   3.402  0.6340 -0.4966 -0.1193
 8868SOL     OW32170   9.037   4.456   3.341  0.2569 -0.9532  0.4704
 8868SOL    HW132171   9.131   4.487   3.337 -0.1574  0.2343 -0.1445
 8868SOL    HW232172   9.015   4.429   3.435  1.0217 -0.6668  0.7356
 8869SOL     OW32173   6.305   8.912   1.759 -0.1379 -0.8872  0.2486
 8869SOL    HW132174   6.292   8.998   1.810  0.5604 -0.9283  0.5051
 8869SOL    HW232175   6.307   8.932   1.661 -0.0489 -0.6210  0.3029
 8870SOL     OW32176   2.763   4.388   3.476  0.3035 -0.1940  0.2938
 8870SOL    HW132177   2.841   4.335   3.509  0.7712  0.2600 -0.0736
 8870SOL    HW232178   2.682   4.328   3.470 -0.1966  0.0491  3.6876
 8871SOL     OW32179   1.500   4.075   2.173  0.0214 -0.1550 -0.6086
 8871SOL    HW132180   1.516   4.171   2.195 -2.1795  0.1462 -0.2599
 8871SOL    HW232181   1.487   4.064   2.075  0.6717 -0.1634 -0.6962
 8872SOL     OW32182   3.134   1.300   0.484  0.2187 -0.2813  0.5456
 8872SOL    HW132183   3.082   1.252   0.555 -1.1579  1.9464  1.1016
 8872SOL    HW232184   3.165   1.388   0.521  2.4614 -0.5882 -0.5289
 8873SOL     OW32185   3.957   9.734   2.817 -0.3667  0.6156  0.3802
 8873SOL    HW132186   3.886   9.664   2.803 -0.0023  0.3973 -0.3874
 8873SOL    HW232187   3.913   9.822   2.836 -0.8554 -0.4270  4.6957
 8875SOL     OW32188   4.969   3.902   1.201 -0.2351 -0.2987 -0.1051
 8875SOL    HW132189   5.034   3.848   1.148 -0.4424  0.1178 -0.7905
 8875SOL    HW232190   4.887   3.847   1.219  0.1233 -0.6749  0.3870
 8876SOL     OW32191   9.223   6.290   3.454  0.2497  0.5031 -0.1886
 8876SOL    HW132192   9.307   6.259   3.409 -0.2962  0.5886 -1.2758
 8876SOL    HW232193   9.224   6.390   3.460  0.4272  0.4796  0.2079
 8877SOL     OW32194   1.440   2.904   1.454  0.0679 -0.7907 -0.2541
 8877SOL    HW132195   1.380   2.837   1.498 -0.4980 -0.7893 -1.0052
 8877SOL    HW232196   1.446   2.986   1.511  0.3105 -1.2587  0.3948
 8878SOL     OW32197   4.286   9.257   3.200 -0.2784 -0.7093 -0.1166
 8878SOL    HW132198   4.335   9.280   3.283  0.5226 -0.0613 -0.7604
 8878SOL    HW232199   4.228   9.177   3.216 -0.8268 -0.0372  1.3136
 8880SOL     OW32200   9.295   4.011   2.666 -0.2175  0.0096  0.0313
 8880SOL    HW132201   9.287   3.929   2.610 -1.1293  0.0352  0.1183
 8880SOL    HW232202   9.390   4.040   2.670 -0.2557  0.4707 -2.1589
 8881SOL     OW32203   9.804   2.544   1.750  0.1598  0.3525  0.2527
 8881SOL    HW132204   9.770   2.496   1.670  1.5486  1.2591 -0.8992
 8881SOL    HW232205   9.844   2.631   1.723  1.6774  0.1618  1.7724
 8882SOL     OW32206   6.782   0.310   2.464 -0.6245  0.4008  0.2628
 8882SOL    HW132207   6.837   0.327   2.545  0.7012  0.1492 -0.5654
 8882SOL    HW232208   6.742   0.218   2.470 -0.1787  0.2152  0.4325
 8883SOL     OW32209   2.216   8.651   1.574  0.1459 -0.4704 -0.5045
 8883SOL    HW132210   2.270   8.573   1.604  2.0349  1.7235  2.1178
 8883SOL    HW232211   2.267   8.736   1.592 -2.2983  1.4398 -2.2050
 8886SOL     OW32212   7.913   1.278   2.831  0.2303 -0.5385  0.4178
 8886SOL    HW132213   7.931   1.371   2.864  2.8013 -0.8829  0.1207
 8886SOL    HW232214   7.950   1.212   2.896 -0.6462 -1.3367  0.1100
 8887SOL     OW32215   8.949   3.661   2.272 -0.6039 -0.1100  0.1843
 8887SOL    HW132216   8.879   3.702   2.330 -0.6537 -1.0770  0.8063
 8887SOL    HW232217   8.905   3.601   2.205 -0.3316 -1.1941  0.9675
 8889SOL     OW32218   0.065   4.749   2.998 -0.4772 -0.7056 -0.2111
 8889SOL    HW132219   0.028   4.691   3.071  0.3736  0.3561  1.0790
 8889SOL    HW232220  -0.001   4.821   2.976  0.7455  1.1348  2.0282
 8890SOL     OW32221   3.197   8.783   0.299  0.2516  0.2783 -0.0062
 8890SOL    HW132222   3.138   8.704   0.312 -0.5763  0.7684 -0.7386
 8890SOL    HW232223   3.283   8.769   0.348  0.0156 -0.9641  0.0682
 8891SOL     OW32224   1.681   3.065   0.805  0.3681 -0.0753 -0.1250
 8891SOL    HW132225   1.627   3.128   0.750 -0.9926 -0.1387  1.1334
 8891SOL    HW232226   1.625   2.986   0.831  1.9577 -1.6967 -1.4381
 8892SOL     OW32227   3.417   4.640   4.218  0.0149  0.3224 -0.2220
 8892SOL    HW132228   3.420   4.667   4.122  2.1447  1.1886  0.0582
 8892SOL    HW232229   3.366   4.709   4.270 -1.0706 -0.1071 -0.6976
 8893SOL     OW32230   3.708   6.135   1.900 -0.0317 -0.4624 -0.2490
 8893SOL    HW132231   3.723   6.234   1.906  1.0129 -0.4960 -2.0931
 8893SOL    HW232232   3.687   6.099   1.991  0.7379  1.2654  0.6331
 8895SOL     OW32233   1.199   0.166   3.687  0.3530 -0.4193  0.5556
 8895SOL    HW132234   1.288   0.157   3.642  0.3218 -2.6473  0.8756
 8895SOL    HW232235   1.212   0.172   3.786  0.3505  3.3630  0.4105
 8896SOL     OW32236   2.484   3.696   3.850 -0.4863  0.0685 -0.3541
 8896SOL    HW132237   2.436   3.744   3.923 -1.1765 -2.5608  0.9799
 8896SOL    HW232238   2.436   3.709   3.763 -0.1283  2.5071 -0.2165
 8897SOL     OW32239   0.799   1.757   4.246 -0.1388 -0.0707  0.1046
 8897SOL    HW132240   0.743   1.826   4.292 -0.4440 -0.7472  0.7672
 8897SOL    HW232241   0.746   1.716   4.172 -0.3097 -0.2755  0.3371
 8898SOL     OW32242  10.001   1.505   4.295  0.5727  0.1185 -0.0144
 8898SOL    HW132243   9.968   1.494   4.201 -0.6563 -0.4264  0.4683
 8898SOL    HW232244   9.923   1.519   4.356  1.3095 -0.3079  1.0350
 8901SOL     OW32245   1.521   0.053   2.776 -0.4804 -0.2389  0.3327
 8901SOL    HW132246   1.469   0.051   2.690  0.4097  1.4641 -0.2686
 8901SOL    HW232247   1.522   0.146   2.812 -0.1578 -0.7948  1.7689
 8902SOL     OW32248   1.466   3.363   0.188 -0.1799 -0.2793 -0.3228
 8902SOL    HW132249   1.513   3.283   0.152  1.3685  0.4623 -0.0037
 8902SOL    HW232250   1.414   3.407   0.115 -1.2358 -1.6874 -0.4438
 8903SOL     OW32251   1.524   9.951   3.946  0.0471 -0.2758 -0.5192
 8903SOL    HW132252   1.476   9.961   4.033  1.7535 -1.8079  0.6451
 8903SOL    HW232253   1.612   9.906   3.961 -0.4294 -2.3294 -3.2639
 8904SOL     OW32254   3.879   5.107   2.014 -0.1619  0.1268  0.2708
 8904SOL    HW132255   3.956   5.106   2.077 -0.2553 -1.2678  0.3771
 8904SOL    HW232256   3.886   5.030   1.951 -1.6328 -0.1999  0.4939
 8905SOL     OW32257   1.232   0.879   2.604 -0.3250  0.2121  0.1792
 8905SOL    HW132258   1.210   0.860   2.699  1.2807  0.0162  0.5243
 8905SOL    HW232259   1.321   0.924   2.599 -1.7192  2.9470 -1.0050
 8906SOL     OW32260   3.681   9.178   1.747 -0.9370 -0.0377  0.1680
 8906SOL    HW132261   3.656   9.247   1.814  0.4355 -0.1219  0.7884
 8906SOL    HW232262   3.640   9.090   1.773  0.8731 -0.4423  1.8132
 8907SOL     OW32263   7.443   9.669   2.391  0.2341 -0.0224 -0.4010
 8907SOL    HW132264   7.395   9.695   2.307  0.2246  1.2958 -0.0092
 8907SOL    HW232265   7.540   9.660   2.372 -0.0386 -1.7956 -1.0013
 8909SOL     OW32266   1.614   3.152   2.298  0.1118 -0.0459 -0.0661
 8909SOL    HW132267   1.602   3.086   2.372 -1.5151  1.1912  0.8200
 8909SOL    HW232268   1.618   3.104   2.211 -1.7330 -1.2980  0.4970
 8910SOL     OW32269   8.683   1.565   1.340  0.9009 -0.7249 -0.6307
 8910SOL    HW132270   8.707   1.594   1.433 -0.3849  2.3837 -1.1848
 8910SOL    HW232271   8.764   1.567   1.283  1.1127  0.5721 -0.3111
 8911SOL     OW32272   8.217   5.713   0.021  0.0712 -0.6247 -0.0007
 8911SOL    HW132273   8.307   5.755   0.034 -0.0123 -0.2786 -0.5198
 8911SOL    HW232274   8.178   5.743  -0.066 -0.9913  0.0518  0.6825
 8912SOL     OW32275   8.032   2.618   2.644 -0.0465 -0.6080  0.2998
 8912SOL    HW132276   8.024   2.708   2.602  1.3010  0.9900  3.3038
 8912SOL    HW232277   8.128   2.599   2.664 -0.6507 -1.0752  3.0239
 8914SOL     OW32278   8.701   9.117   2.469  0.1703 -0.1397 -0.0914
 8914SOL    HW132279   8.694   9.215   2.455  0.6885  0.3860  2.8821
 8914SOL    HW232280   8.798   9.091   2.480  0.0601 -1.0340 -1.0658
 8916SOL     OW32281   4.167   7.608   3.648 -0.4510  0.7221 -0.6279
 8916SOL    HW132282   4.143   7.510   3.647 -0.0674  0.6303 -2.3151
 8916SOL    HW232283   4.247   7.622   3.706 -0.1374 -0.0677 -0.8598
 8917SOL     OW32284   2.819   1.740   1.024 -0.0653  0.0712 -0.2585
 8917SOL    HW132285   2.911   1.757   0.989  0.0770 -0.0708  0.0451
 8917SOL    HW232286   2.757   1.724   0.947  0.0359  0.7727 -0.4934
 8918SOL     OW32287   8.625   1.522   1.688 -0.3203  0.0117  0.3104
 8918SOL    HW132288   8.543   1.535   1.631  0.6536 -0.8062 -1.3295
 8918SOL    HW232289   8.689   1.597   1.672 -0.0253 -0.2432  0.2774
 8920SOL     OW32290   4.044   1.904   2.945 -0.0247 -0.4137 -0.8201
 8920SOL    HW132291   4.097   1.927   2.863 -1.2184  1.0630 -1.2255
 8920SOL    HW232292   3.993   1.819   2.929  0.3395 -0.5392 -1.3269
 8921SOL     OW32293   0.191   1.045   3.398 -0.7491 -0.2036  0.0291
 8921SOL    HW132294   0.236   1.134   3.395  1.3187 -1.2071  0.2199
 8921SOL    HW232295   0.170   1.021   3.493 -1.8217  0.3068 -0.0674
 8923SOL     OW32296   0.948   9.150   3.833 -0.2686  0.2052  0.1241
 8923SOL    HW132297   0.954   9.113   3.926 -1.0687  1.1354  0.5598
 8923SOL    HW232298   1.036   9.139   3.787  0.3471  0.3668  1.2453
 8924SOL     OW32299   9.970   9.530   1.901 -0.3746  0.3570  0.1039
 8924SOL    HW132300   9.942   9.596   1.831  0.7819  2.0446  1.1917
 8924SOL    HW232301   9.922   9.548   1.986  0.2091  0.0152  0.5123
 8925SOL     OW32302   3.572   6.497   3.203  0.8573 -0.0702 -0.0396
 8925SOL    HW132303   3.574   6.527   3.298  1.5525  0.0991 -0.1089
 8925SOL    HW232304   3.514   6.559   3.150  1.9669  0.9362 -0.1025
 8926SOL     OW32305   1.964   9.769   0.798 -0.2466  0.8070 -0.1051
 8926SOL    HW132306   1.935   9.683   0.757  1.2744  0.2483 -0.0257
 8926SOL    HW232307   1.928   9.775   0.891 -0.0136  0.0634  0.0382
 8927SOL     OW32308   2.512   8.530   2.531 -0.3594 -0.0566  0.3943
 8927SOL    HW132309   2.441   8.492   2.591  0.0521 -1.1457  0.2121
 8927SOL    HW232310   2.477   8.537   2.438 -0.6864  0.7361  0.5746
 8928SOL     OW32311   8.130   4.734   3.939  0.2532  0.2226  0.9602
 8928SOL    HW132312   8.206   4.743   3.875 -0.0477 -0.2044  0.5346
 8928SOL    HW232313   8.146   4.657   4.000  0.1138  0.0672  0.8008
 8929SOL     OW32314   3.925   8.645   3.040 -0.6592  0.7687  0.2519
 8929SOL    HW132315   3.967   8.577   3.100 -0.6567  0.4294 -0.1262
 8929SOL    HW232316   3.927   8.734   3.084 -0.5412  0.5488  0.7010
 8930SOL     OW32317   1.910   7.326   4.277  0.1310 -0.1837 -0.3648
 8930SOL    HW132318   1.971   7.323   4.198  2.4220 -1.5395  1.3855
 8930SOL    HW232319   1.948   7.388   4.346 -2.1759  1.4846 -0.5498
 8931SOL     OW32320   7.956   0.035   0.545  0.1000  0.2602  0.0148
 8931SOL    HW132321   8.033   0.064   0.602  0.8206  0.1576 -0.8843
 8931SOL    HW232322   7.931   0.109   0.482 -0.0855  0.0522 -0.1582
 8933SOL     OW32323   7.773   5.844   2.268 -0.4935  0.1327  0.4163
 8933SOL    HW132324   7.704   5.887   2.327 -1.3473 -1.0915  0.3320
 8933SOL    HW232325   7.842   5.911   2.243 -1.8150  1.4618  0.2728
 8934SOL     OW32326   8.706   6.290   1.294  0.5499  0.8556  0.6047
 8934SOL    HW132327   8.725   6.331   1.383  0.9849  1.1954  0.3530
 8934SOL    HW232328   8.768   6.213   1.279 -0.7814 -0.4183  1.4227
 8935SOL     OW32329   4.005   9.427   3.626 -0.1312 -0.2966  1.0612
 8935SOL    HW132330   3.949   9.436   3.544 -1.1811  0.4227  1.8436
 8935SOL    HW232331   3.983   9.342   3.673  1.7559 -1.5940 -0.3397
 8936SOL     OW32332   4.675   6.897   2.585  0.2255  0.2106 -0.2148
 8936SOL    HW132333   4.618   6.936   2.657  0.8185 -0.1970  0.4847
 8936SOL    HW232334   4.624   6.826   2.536  0.5031 -0.9421  1.1454
 8937SOL     OW32335   2.071   9.233   3.580 -0.0144 -0.4602  0.3354
 8937SOL    HW132336   1.997   9.300   3.571  1.4220  1.2276  0.9028
 8937SOL    HW232337   2.074   9.198   3.674  1.6647  1.5745  1.0647
 8938SOL     OW32338   9.894   3.392   0.476  0.3576 -0.5191 -0.2796
 8938SOL    HW132339   9.839   3.442   0.409  1.5654 -1.1653 -1.7817
 8938SOL    HW232340   9.969   3.449   0.508  0.0979 -0.3991  0.1165
 8939SOL     OW32341   5.900   4.179   0.473 -0.0826  0.3309 -0.5884
 8939SOL    HW132342   5.909   4.259   0.413  0.6396 -0.0036 -0.9364
 8939SOL    HW232343   5.888   4.208   0.567  2.1200  0.8531 -0.4445
 8940SOL     OW32344   1.724   0.301   4.004  0.1408 -0.1536 -0.0182
 8940SOL    HW132345   1.657   0.344   4.065  0.3976 -0.4761  0.5047
 8940SOL    HW232346   1.774   0.231   4.056 -0.5044 -1.3147 -0.9344
 8941SOL     OW32347   4.392   1.414   4.306 -0.0377  0.4727 -0.1600
 8941SOL    HW132348   4.481   1.395   4.348  0.3115  1.4011 -0.4698
 8941SOL    HW232349   4.319   1.395   4.372  0.3549 -0.9158 -0.1177
 8943SOL     OW32350   5.349   6.841   2.787  0.1104  0.0117  0.6311
 8943SOL    HW132351   5.358   6.858   2.689 -0.8798  0.4673  0.6094
 8943SOL    HW232352   5.252   6.834   2.811  0.3705 -1.4391  1.3525
 8944SOL     OW32353   9.292   2.872   4.086  0.1360 -0.0182 -0.2514
 8944SOL    HW132354   9.366   2.940   4.088 -0.4571  0.6631 -1.4507
 8944SOL    HW232355   9.216   2.906   4.031 -1.0553 -0.7513  0.9093
 8945SOL     OW32356   3.981   4.240   2.603  0.0944 -0.1584  0.2892
 8945SOL    HW132357   4.079   4.245   2.584  0.3225 -0.7652  1.2702
 8945SOL    HW232358   3.931   4.287   2.530  1.1508  0.8600  0.2068
 8946SOL     OW32359   5.654   7.866   2.868 -0.1073  0.3694  0.0539
 8946SOL    HW132360   5.559   7.878   2.897 -0.1001  4.9918 -1.5233
 8946SOL    HW232361   5.695   7.790   2.920 -4.5022 -1.5532  0.9341
 8947SOL     OW32362   3.044   8.870   2.907 -0.2935  0.1615 -0.1164
 8947SOL    HW132363   3.097   8.819   2.839  0.0652 -0.8296  0.8784
 8947SOL    HW232364   2.999   8.805   2.969 -1.1692  1.0337  0.1826
 8948SOL     OW32365   3.620   1.146   3.814 -0.2247  0.1633  0.3990
 8948SOL    HW132366   3.540   1.162   3.873 -0.4556 -1.7741  0.6590
 8948SOL    HW232367   3.652   1.052   3.827  1.1517  0.4438 -0.8654
 8949SOL     OW32368   5.889   6.983   2.133 -0.2710 -0.0734 -0.2556
 8949SOL    HW132369   5.814   6.916   2.143 -0.4950  0.5087  2.2334
 8949SOL    HW232370   5.968   6.938   2.092 -0.6023 -1.7751  0.9054
 8950SOL     OW32371   1.108   1.082   0.732 -0.0203 -0.1619 -0.0413
 8950SOL    HW132372   1.045   1.064   0.656  1.6604  0.6678 -1.6758
 8950SOL    HW232373   1.056   1.095   0.816 -2.0100  0.3077 -1.3121
 8952SOL     OW32374   2.108   6.442   0.538 -0.2497  0.3695 -0.7852
 8952SOL    HW132375   2.151   6.532   0.541 -0.1452  0.2599  1.1661
 8952SOL    HW232376   2.156   6.379   0.599 -1.6247 -0.4285 -0.5050
 8954SOL     OW32377   1.593   8.317   2.678 -0.0409  0.1619  0.4220
 8954SOL    HW132378   1.606   8.404   2.631  0.0326  0.3620  0.8108
 8954SOL    HW232379   1.497   8.308   2.706 -0.0506  0.1146  0.3736
 8955SOL     OW32380   1.696   6.585   3.328  0.5067 -0.5363  0.4107
 8955SOL    HW132381   1.785   6.570   3.285  0.6025  1.7021 -0.2598
 8955SOL    HW232382   1.646   6.655   3.277 -1.6471 -1.7875  0.7758
 8956SOL     OW32383   2.939   9.708   3.049  0.7453  0.3621 -0.1243
 8956SOL    HW132384   2.874   9.769   3.005 -0.4960 -0.2456  0.8476
 8956SOL    HW232385   3.029   9.720   3.008  0.2192  1.8619 -0.8605
 8957SOL     OW32386   0.533   1.224   3.160  0.2938  0.0235 -0.1358
 8957SOL    HW132387   0.535   1.310   3.110  1.1291  0.8219  1.2398
 8957SOL    HW232388   0.611   1.168   3.133 -0.5601 -0.5597 -1.4483
 8958SOL     OW32389   7.682   6.212   2.764 -0.9378  1.3175 -0.2453
 8958SOL    HW132390   7.602   6.229   2.706 -0.9527  1.9701 -0.0367
 8958SOL    HW232391   7.763   6.199   2.707 -1.3972 -0.5990 -0.5206
 8959SOL     OW32392   1.357   7.448   3.684 -0.1415  0.6402  0.6470
 8959SOL    HW132393   1.406   7.492   3.759 -0.8054  0.6512  1.0736
 8959SOL    HW232394   1.271   7.410   3.717  1.2544 -2.6306  0.7096
 8961SOL     OW32395   0.991   6.080   3.954 -0.4591 -0.2583 -0.6545
 8961SOL    HW132396   0.984   5.993   4.002 -0.7765 -0.6108 -1.3285
 8961SOL    HW232397   1.061   6.137   3.998  0.0600 -1.0258 -0.4747
 8962SOL     OW32398   1.772   6.528   2.834 -0.2566  0.8403  0.0931
 8962SOL    HW132399   1.835   6.459   2.869 -0.9560  0.3395  0.3699
 8962SOL    HW232400   1.801   6.619   2.865 -0.7494  0.4270  1.8119
 8963SOL     OW32401   4.125   1.601   1.755  0.3143 -0.1075  0.2436
 8963SOL    HW132402   4.192   1.670   1.729  0.1889  0.4993  1.5263
 8963SOL    HW232403   4.077   1.569   1.673  1.8885 -0.2711 -0.6262
 8965SOL     OW32404   1.717   9.810   0.407 -0.0391  0.5996  0.2826
 8965SOL    HW132405   1.716   9.778   0.313 -2.7666  2.0825 -0.2758
 8965SOL    HW232406   1.744   9.736   0.468  1.7490 -0.3704 -1.6452
 8966SOL     OW32407   4.237   9.515   3.117  0.1587 -0.0611 -0.1381
 8966SOL    HW132408   4.309   9.541   3.052  1.5543  1.5927  2.0014
 8966SOL    HW232409   4.260   9.427   3.158 -0.2996 -0.7072 -1.2434
 8967SOL     OW32410   9.399   9.545   3.455 -0.1785  0.0469  0.7763
 8967SOL    HW132411   9.457   9.467   3.430  1.0864  1.1297  0.2726
 8967SOL    HW232412   9.335   9.517   3.527 -1.0513 -1.9788 -0.7450
 8968SOL     OW32413   4.761   4.453   1.921 -0.1305 -0.2963 -0.4697
 8968SOL    HW132414   4.746   4.547   1.891 -0.1092 -0.0624  0.2517
 8968SOL    HW232415   4.858   4.431   1.916  0.0675  0.2424  0.8886
 8969SOL     OW32416   7.822   5.588   2.249  0.1191 -0.2138 -0.3593
 8969SOL    HW132417   7.794   5.683   2.265 -0.5713 -0.4737 -0.0313
 8969SOL    HW232418   7.823   5.571   2.150 -1.3306 -0.3303 -0.3676
 8970SOL     OW32419   8.289   6.154   2.772 -0.2890  0.1727 -0.0125
 8970SOL    HW132420   8.362   6.198   2.719 -0.8546  0.0454 -0.9099
 8970SOL    HW232421   8.313   6.058   2.786 -1.3595 -0.4775 -2.3588
 8971SOL     OW32422   0.817   0.674   0.586  0.3018  0.4388  0.3267
 8971SOL    HW132423   0.886   0.626   0.531 -3.2395 -2.1093 -2.0948
 8971SOL    HW232424   0.761   0.731   0.526 -1.0271  0.8239  1.9112
 8973SOL     OW32425   1.652   6.316   3.426  0.5271 -0.5653  0.3925
 8973SOL    HW132426   1.691   6.246   3.366  0.2276  0.4011 -0.9520
 8973SOL    HW232427   1.674   6.407   3.391  0.1307  0.0150  1.6168
 8974SOL     OW32428   3.131   2.238   1.561 -0.2083  0.0614  0.2051
 8974SOL    HW132429   3.177   2.326   1.568  0.3269 -0.3219  1.6597
 8974SOL    HW232430   3.148   2.199   1.470  0.1847  1.0978 -0.1749
 8975SOL     OW32431   1.477   0.369   0.956 -0.2600  0.5984  0.6553
 8975SOL    HW132432   1.421   0.448   0.928 -0.1088  1.2688  2.2171
 8975SOL    HW232433   1.527   0.335   0.876 -0.5808  1.8700 -0.1171
 8977SOL     OW32434   0.142   8.822   3.661  0.4054  0.0783  0.0495
 8977SOL    HW132435   0.067   8.816   3.595 -1.0483  2.0820  1.4682
 8977SOL    HW232436   0.135   8.747   3.727  0.5982 -0.6594 -0.7528
 8978SOL     OW32437   4.686   9.603   3.460  0.3383  0.4099 -0.3691
 8978SOL    HW132438   4.681   9.510   3.496  0.5917 -0.0219 -1.4027
 8978SOL    HW232439   4.599   9.650   3.476  0.3214  0.1077  0.4436
 8979SOL     OW32440   9.943   6.083   0.381  1.1488  0.8322  0.0731
 8979SOL    HW132441   9.901   6.007   0.431  0.2958  2.0276  1.2122
 8979SOL    HW232442   9.899   6.092   0.292  2.6549 -1.2916 -0.9348
 8981SOL     OW32443   8.426   1.738   1.835  0.2954 -0.0119  0.5051
 8981SOL    HW132444   8.450   1.641   1.833 -1.0905 -0.3779  0.9498
 8981SOL    HW232445   8.438   1.778   1.745 -3.3379 -1.6636 -0.8179
 8982SOL     OW32446   3.926   4.544   4.237  0.1331  0.5256 -0.4696
 8982SOL    HW132447   3.916   4.582   4.329  1.2317  1.0928 -0.5761
 8982SOL    HW232448   3.847   4.570   4.182 -1.2398 -1.0380  0.7255
 8984SOL     OW32449   0.669   5.919   2.134 -0.3409 -0.1845 -0.3107
 8984SOL    HW132450   0.607   5.877   2.200  1.1483 -0.2412  1.0739
 8984SOL    HW232451   0.627   5.917   2.043 -1.2565 -2.6191  0.1340
 8985SOL     OW32452   9.804   6.740   3.662  0.0184 -0.0777  0.5308
 8985SOL    HW132453   9.818   6.646   3.630 -0.9130 -0.3440  0.8620
 8985SOL    HW232454   9.859   6.756   3.744 -1.8264 -1.2419  2.0807
 8986SOL     OW32455   2.117   8.248   4.177  0.3160 -0.2361 -0.1210
 8986SOL    HW132456   2.159   8.296   4.254 -4.1411  1.2321  1.5901
 8986SOL    HW232457   2.083   8.315   4.110 -0.2069 -1.2733 -0.9139
 8987SOL     OW32458   8.807   0.151   2.245  0.6037 -0.0763  0.0425
 8987SOL    HW132459   8.862   0.080   2.202  0.2763 -0.2327 -0.1198
 8987SOL    HW232460   8.792   0.128   2.341 -0.1224 -0.5964 -0.1944
 8988SOL     OW32461   7.667   8.851   1.703 -0.6569  0.6759  0.2327
 8988SOL    HW132462   7.720   8.766   1.705  0.3873  1.3067 -0.1567
 8988SOL    HW232463   7.658   8.887   1.796 -1.8808 -0.3378  0.5055
 8989SOL     OW32464   5.301   4.425   0.563  0.1487 -0.2336 -0.4004
 8989SOL    HW132465   5.286   4.457   0.469 -1.9800 -0.3935 -0.1236
 8989SOL    HW232466   5.245   4.344   0.581  1.7191 -1.1472  0.5321
 8990SOL     OW32467   5.388   9.436   4.156 -0.1451 -0.3246  0.4455
 8990SOL    HW132468   5.380   9.438   4.057  2.4924 -0.9463  0.1884
 8990SOL    HW232469   5.299   9.414   4.196 -1.1038 -0.6433 -1.7773
 8991SOL     OW32470   7.785   0.125   4.199 -0.3093 -0.3188  0.2172
 8991SOL    HW132471   7.844   0.167   4.267 -0.6914  0.8363 -0.1611
 8991SOL    HW232472   7.806   0.162   4.109 -1.6625  0.1694  0.0844
 8992SOL     OW32473   4.947   8.473   3.692  0.4169 -0.2304  0.0582
 8992SOL    HW132474   4.977   8.421   3.771 -0.5115  0.5556  0.9555
 8992SOL    HW232475   4.850   8.455   3.675  0.1911  0.8611  0.1275
 8993SOL     OW32476   2.743   9.292   1.874  0.3187  0.1871  0.2991
 8993SOL    HW132477   2.816   9.329   1.931 -0.0546  1.0225  0.2313
 8993SOL    HW232478   2.700   9.365   1.823 -0.1906 -0.3887 -0.1028
 8995SOL     OW32479   8.678   3.336   3.950 -0.7512  0.3574 -0.4212
 8995SOL    HW132480   8.582   3.343   3.976 -0.4345 -1.8896  1.5485
 8995SOL    HW232481   8.735   3.338   4.033  0.6941 -1.2937 -1.3320
 8996SOL     OW32482   0.570   4.101   0.611  0.3026 -0.0407 -1.0218
 8996SOL    HW132483   0.601   4.162   0.685  1.5719 -1.6365 -0.2113
 8996SOL    HW232484   0.634   4.106   0.535 -0.2704  0.5662 -1.4726
 8997SOL     OW32485   8.466   8.252   1.230  0.0671 -0.3614 -0.3308
 8997SOL    HW132486   8.427   8.196   1.304  0.8901 -0.5170 -0.0107
 8997SOL    HW232487   8.460   8.348   1.254 -1.3674 -0.3007 -0.8875
 8998SOL     OW32488   8.822   9.596   3.715 -0.1579  0.2247  0.5169
 8998SOL    HW132489   8.728   9.600   3.748 -0.0945  2.4927  0.4652
 8998SOL    HW232490   8.841   9.677   3.659  2.1359  0.2982  1.3676
 8999SOL     OW32491   9.791   0.850   1.131  0.0714  0.1061  0.0746
 8999SOL    HW132492   9.776   0.844   1.230  0.1216  1.8299  0.1936
 8999SOL    HW232493   9.855   0.778   1.103 -1.1588 -1.4090  1.0302
 9000SOL     OW32494   4.188   8.088   0.549 -0.3475  0.4032 -0.4530
 9000SOL    HW132495   4.245   8.164   0.581 -0.3669 -0.1130  0.7987
 9000SOL    HW232496   4.165   8.028   0.625 -3.7532  1.3657 -0.6595
 9001SOL     OW32497   2.228   6.563   4.280 -0.0836 -0.3494 -0.1308
 9001SOL    HW132498   2.284   6.519   4.350  1.1339 -0.1657 -0.9712
 9001SOL    HW232499   2.151   6.503   4.257  1.4563 -1.9991 -1.1346
 9002SOL     OW32500   8.277   9.203   4.382  0.2013  0.3976 -0.7367
 9002SOL    HW132501   8.195   9.259   4.386 -0.2687 -0.2421 -1.3562
 9002SOL    HW232502   8.293   9.173   4.288  1.8094  1.4939 -0.8366
 9003SOL     OW32503   1.309   5.930   0.222 -0.1088 -0.4899  0.5288
 9003SOL    HW132504   1.340   5.837   0.203  0.0164 -0.8397  2.3293
 9003SOL    HW232505   1.341   5.991   0.150  2.0521 -1.3820  0.6843
 9004SOL     OW32506   1.872   2.433   2.529  0.0033  0.0070 -0.3747
 9004SOL    HW132507   1.874   2.426   2.430 -2.5948 -1.6290 -0.3625
 9004SOL    HW232508   1.963   2.417   2.566  0.9395  0.4130 -2.4604
 9005SOL     OW32509   7.102   8.855   4.377  0.1980 -0.0951  1.1166
 9005SOL    HW132510   7.177   8.797   4.346  0.1577  1.0475 -1.2206
 9005SOL    HW232511   7.138   8.941   4.413  0.0611  0.1177  0.7527
 9006SOL     OW32512   4.457   4.342   1.318 -0.3148  0.1213 -0.0664
 9006SOL    HW132513   4.365   4.303   1.313  0.1033 -0.6419 -2.4503
 9006SOL    HW232514   4.452   4.434   1.358 -1.8329 -0.6744  1.6701
 9007SOL     OW32515   1.675   6.589   0.018  0.2060  0.3074  0.1613
 9007SOL    HW132516   1.737   6.649  -0.034 -1.0685 -0.6645 -2.6115
 9007SOL    HW232517   1.643   6.636   0.099  1.7448  2.1745 -0.2732
 9008SOL     OW32518   3.160   2.889   2.861 -0.0387  0.5619 -0.3124
 9008SOL    HW132519   3.101   2.809   2.856  0.0191  0.5091 -0.1653
 9008SOL    HW232520   3.120   2.956   2.924  1.2277 -0.4697  1.6526
 9009SOL     OW32521   5.937   8.647   3.553 -0.1320  0.1682 -0.2138
 9009SOL    HW132522   5.966   8.718   3.488 -0.1553  1.5419  1.2463
 9009SOL    HW232523   5.879   8.688   3.623  1.6051 -0.8593  1.8853
 9010SOL     OW32524   9.012   3.291   3.421  0.6985 -0.6143  0.7634
 9010SOL    HW132525   9.055   3.368   3.468 -1.3526  1.9663 -1.3913
 9010SOL    HW232526   9.063   3.270   3.338 -0.0273 -0.0189  0.1550
 9011SOL     OW32527   1.578   9.645   1.065 -0.0800 -0.2971  0.2131
 9011SOL    HW132528   1.560   9.689   1.153 -3.0179 -0.5761 -0.2026
 9011SOL    HW232529   1.572   9.546   1.075 -0.8996 -0.3131 -0.3903
 9012SOL     OW32530   0.391   8.233   2.079  0.1136 -0.0499  0.4548
 9012SOL    HW132531   0.393   8.136   2.053 -0.5016 -0.1339  0.7233
 9012SOL    HW232532   0.379   8.240   2.178 -0.6857  0.3081  0.3366
 9013SOL     OW32533   0.981   6.114   3.430  0.1751  0.4899 -0.9313
 9013SOL    HW132534   0.989   6.047   3.356 -0.8588  0.9909 -1.5034
 9013SOL    HW232535   0.943   6.070   3.511 -3.0880  0.9642 -2.1429
 9014SOL     OW32536   8.303   4.780   3.540  0.7532 -0.5546 -0.1605
 9014SOL    HW132537   8.293   4.707   3.608 -1.2237 -0.5358 -0.3777
 9014SOL    HW232538   8.356   4.747   3.463  1.4849 -1.1587  0.5952
 9015SOL     OW32539   1.624   7.292   2.047  0.5132 -0.5088 -0.5789
 9015SOL    HW132540   1.541   7.296   1.990  0.7012  0.5721 -0.7939
 9015SOL    HW232541   1.668   7.203   2.036  0.0660 -0.6293 -1.4460
 9016SOL     OW32542   5.933   9.363   2.557  0.1374 -0.2711 -0.0242
 9016SOL    HW132543   5.967   9.279   2.599  1.6698 -0.2361 -1.1395
 9016SOL    HW232544   6.003   9.401   2.496 -1.7070  0.1199 -1.9875
 9019SOL     OW32545   3.135   6.412   4.289  0.1071  0.1083 -0.4658
 9019SOL    HW132546   3.125   6.316   4.314  0.3465  0.5017  1.1719
 9019SOL    HW232547   3.145   6.468   4.372  1.7937  1.3388 -1.4643
 9020SOL     OW32548   7.121   9.363   3.306  0.9108  0.3444 -0.5114
 9020SOL    HW132549   7.151   9.449   3.265  1.6954 -0.0561 -0.7827
 9020SOL    HW232550   7.192   9.328   3.367  0.4042  0.1247 -0.0421
 9022SOL     OW32551   1.771   4.183   1.979 -0.0408  0.6894  0.0982
 9022SOL    HW132552   1.704   4.121   2.019  0.4128 -0.8264 -1.4251
 9022SOL    HW232553   1.736   4.220   1.893  0.2944  1.3966  0.2603
 9023SOL     OW32554   3.121   2.885   1.273 -0.1076 -0.2478 -0.1141
 9023SOL    HW132555   3.161   2.800   1.239 -1.2145 -1.0367  0.5486
 9023SOL    HW232556   3.103   2.946   1.195  1.2544 -0.3557 -0.5309
 9024SOL     OW32557   3.138   1.020   2.296 -0.3140  0.3684  0.0581
 9024SOL    HW132558   3.171   1.061   2.212  1.1530  1.1786  0.9992
 9024SOL    HW232559   3.038   1.015   2.295 -0.2766 -0.0012 -1.8792
 9025SOL     OW32560   9.077   3.022   0.987  0.1848 -0.4871 -0.1230
 9025SOL    HW132561   9.027   3.057   1.066 -1.2705  0.8540 -1.5976
 9025SOL    HW232562   9.149   2.960   1.018 -0.0293  0.4088  2.2696
 9026SOL     OW32563   5.164   8.438   3.873 -0.8916 -0.4325  0.3661
 9026SOL    HW132564   5.236   8.404   3.935 -0.9931 -1.4630 -0.0790
 9026SOL    HW232565   5.135   8.528   3.904 -0.0687 -0.4059  1.1110
 9027SOL     OW32566   4.080   0.744   0.564  0.0453 -0.4039  0.1102
 9027SOL    HW132567   4.148   0.671   0.556  2.0231  1.3739  0.1219
 9027SOL    HW232568   4.103   0.818   0.501  0.2672  1.8454  2.6941
 9029SOL     OW32569   7.858   6.727   2.263  0.5299  0.4766 -0.3484
 9029SOL    HW132570   7.812   6.810   2.231 -1.1193  0.7446  2.5035
 9029SOL    HW232571   7.956   6.745   2.273  0.0536  2.4442  1.2360
 9030SOL     OW32572   3.419   5.364   0.678 -0.4651  0.4159  0.3942
 9030SOL    HW132573   3.449   5.440   0.736  3.6996 -1.6775  1.1361
 9030SOL    HW232574   3.332   5.388   0.634 -1.1733  4.0496  3.5435
 9032SOL     OW32575   5.004   7.213   1.602 -0.7305  0.8461  0.1254
 9032SOL    HW132576   4.961   7.262   1.526 -2.1474  0.4083  0.6319
 9032SOL    HW232577   4.967   7.120   1.607 -0.6209  0.8628  1.3354
 9033SOL     OW32578   5.929   1.586   3.783 -0.5484  0.9379 -0.1357
 9033SOL    HW132579   5.934   1.653   3.857  1.3150  1.0558 -0.3534
 9033SOL    HW232580   5.954   1.630   3.697 -1.2815  0.4388 -0.6050
 9034SOL     OW32581   8.542   7.658   4.236  0.5123  0.6008 -0.1577
 9034SOL    HW132582   8.594   7.594   4.292  0.9739  1.1098  0.0031
 9034SOL    HW232583   8.464   7.611   4.195 -0.4201  0.4598  1.7179
 9035SOL     OW32584   6.661   9.665   4.398  0.2592  0.6882 -0.4373
 9035SOL    HW132585   6.735   9.727   4.370  0.2831  0.4545 -0.8925
 9035SOL    HW232586   6.589   9.667   4.329  0.6162 -0.4016 -0.8500
 9036SOL     OW32587   2.031   6.966   4.339  0.1352 -0.0819  0.2545
 9036SOL    HW132588   2.094   7.029   4.293  2.2424 -0.9447  1.8863
 9036SOL    HW232589   1.997   6.899   4.274  2.3659 -0.7181 -0.3139
 9037SOL     OW32590   3.435   6.275   0.823 -0.1386  0.5918 -0.2150
 9037SOL    HW132591   3.368   6.205   0.847  1.9069 -1.8740 -1.5917
 9037SOL    HW232592   3.413   6.312   0.732  0.3888 -0.2158 -0.6667
 9038SOL     OW32593   8.586   1.922   1.234  0.1275 -0.5449  0.0485
 9038SOL    HW132594   8.498   1.967   1.241  0.5389  0.0303  1.5301
 9038SOL    HW232595   8.625   1.939   1.143 -1.0181 -0.3333 -0.4044
 9039SOL     OW32596   5.389   9.783   2.675  0.2704 -0.4254 -0.3782
 9039SOL    HW132597   5.378   9.752   2.770  0.2810  1.3319  0.2199
 9039SOL    HW232598   5.475   9.833   2.666  0.3076 -0.6508 -1.3398
 9040SOL     OW32599   3.410   1.962   1.655  0.1984 -0.1407 -0.0854
 9040SOL    HW132600   3.482   2.032   1.652 -0.1132  0.1407 -1.0807
 9040SOL    HW232601   3.452   1.871   1.650  0.6392 -0.0509  1.7272
 9041SOL     OW32602   8.192   5.326   0.280  0.6739  0.3647  0.1795
 9041SOL    HW132603   8.204   5.366   0.189  1.0299  1.5488  0.7433
 9041SOL    HW232604   8.105   5.277   0.283  0.9930 -0.2940 -1.0171
 9042SOL     OW32605   9.543   7.731   2.458  1.1775  0.0595  0.8687
 9042SOL    HW132606   9.496   7.818   2.445 -0.1949 -0.7988 -0.0349
 9042SOL    HW232607   9.497   7.679   2.531  1.6507 -0.1451  1.0236
 9043SOL     OW32608   0.268   3.143   0.823 -0.0223  0.2442 -0.0437
 9043SOL    HW132609   0.209   3.100   0.755 -0.7249 -0.2063  0.8450
 9043SOL    HW232610   0.214   3.170   0.903  0.8891  0.2105  0.5968
 9044SOL     OW32611   9.356   0.100   1.959 -0.0145 -0.1046 -0.2192
 9044SOL    HW132612   9.428   0.160   1.992  0.2847 -0.6776  0.1716
 9044SOL    HW232613   9.333   0.034   2.030 -1.5248  0.6158 -0.0062
 9045SOL     OW32614   2.628   5.588   3.973 -0.4957 -0.0432 -0.1355
 9045SOL    HW132615   2.655   5.524   3.901 -0.1605 -1.1012  0.9028
 9045SOL    HW232616   2.671   5.677   3.957  1.6111 -0.9745  0.0902
 9046SOL     OW32617   5.030   1.042   0.464  0.9623  0.2774  0.8071
 9046SOL    HW132618   5.096   0.967   0.461 -2.1540 -2.5682 -0.1716
 9046SOL    HW232619   5.004   1.068   0.371 -1.1769 -0.4268  1.1822
 9047SOL     OW32620   2.431   2.485   2.725 -0.6215  0.2026 -0.0526
 9047SOL    HW132621   2.425   2.579   2.758  0.0845  0.2104  0.0788
 9047SOL    HW232622   2.449   2.424   2.803  1.2243  0.2367 -0.4134
 9049SOL     OW32623   0.728   7.017   3.624  0.0842 -0.4163 -0.3141
 9049SOL    HW132624   0.771   7.071   3.697  0.2582 -2.9339  1.5505
 9049SOL    HW232625   0.798   6.962   3.579 -0.1960  0.3645 -1.7152
 9050SOL     OW32626   9.328   9.895   2.812  0.0165  0.6260  0.0099
 9050SOL    HW132627   9.289   9.809   2.778  0.8993  1.0850 -2.2460
 9050SOL    HW232628   9.411   9.875   2.865 -0.7578 -0.0239  0.9976
 9051SOL     OW32629   1.337   2.632   3.629  0.2946 -0.4859 -0.4221
 9051SOL    HW132630   1.432   2.604   3.619  0.4087 -0.7062  1.1294
 9051SOL    HW232631   1.288   2.564   3.684 -0.6958 -0.2536 -1.0114
 9052SOL     OW32632   2.805   3.170   2.367  0.3297 -0.3310  0.0630
 9052SOL    HW132633   2.716   3.133   2.393  1.4330 -1.9484  1.6685
 9052SOL    HW232634   2.835   3.126   2.282 -0.4318  0.2842 -0.5319
 9053SOL     OW32635   8.122   7.724   2.652  0.1220  0.4131  0.0451
 9053SOL    HW132636   8.025   7.697   2.653  0.1787  0.2237  0.5751
 9053SOL    HW232637   8.165   7.694   2.737  0.6531  0.4802 -0.2017
 9054SOL     OW32638   7.572   8.932   4.270  0.4930 -0.0686  0.4805
 9054SOL    HW132639   7.599   8.836   4.275  0.7923 -0.0675 -0.8918
 9054SOL    HW232640   7.632   8.986   4.328  0.9032 -0.5944  0.5521
 9055SOL     OW32641   0.826   0.022   4.347 -0.0964  0.3014 -0.1535
 9055SOL    HW132642   0.889   0.069   4.285  0.7482 -0.5727  0.0340
 9055SOL    HW232643   0.738   0.069   4.347  0.7822  1.9698  0.1448
 9056SOL     OW32644   1.581   3.450   2.096  0.1557 -0.5362 -0.5861
 9056SOL    HW132645   1.626   3.417   2.179  1.2454  0.4566 -0.7684
 9056SOL    HW232646   1.482   3.456   2.112  0.3612 -0.3115  0.6467
 9057SOL     OW32647   1.142   9.668   1.763 -0.0344 -0.4897  0.1409
 9057SOL    HW132648   1.167   9.744   1.823  1.7560 -0.6438 -0.3725
 9057SOL    HW232649   1.224   9.617   1.738 -1.2158 -2.5293  0.3653
 9058SOL     OW32650   1.470   0.460   0.269  0.5456 -0.3278 -0.0663
 9058SOL    HW132651   1.536   0.467   0.195 -0.8730  0.7087 -1.2566
 9058SOL    HW232652   1.382   0.432   0.233  0.3156 -1.7292  1.5190
 9059SOL     OW32653   7.722   8.686   1.046 -0.0778 -0.7364 -0.6651
 9059SOL    HW132654   7.630   8.674   1.010  0.6336  0.9143 -3.1890
 9059SOL    HW232655   7.737   8.783   1.068  1.8072 -0.5517 -2.5736
 9060SOL     OW32656   8.673   9.053   1.822  0.1532  0.0580  0.2730
 9060SOL    HW132657   8.751   9.005   1.861  0.1381  0.8246  1.2828
 9060SOL    HW232658   8.678   9.150   1.847 -0.8278  0.2178 -0.1152
 9061SOL     OW32659   0.458   8.645   0.130 -0.1422  0.3245 -0.5431
 9061SOL    HW132660   0.427   8.736   0.159 -0.4651 -0.1387  0.6088
 9061SOL    HW232661   0.406   8.575   0.179 -0.4399 -0.4942 -2.0011
 9062SOL     OW32662   8.352   3.272   1.658 -0.2417  0.0465 -0.4808
 9062SOL    HW132663   8.409   3.353   1.644 -1.5938  1.1637  0.2963
 9062SOL    HW232664   8.296   3.286   1.740 -1.6413 -1.0149 -1.2594
 9063SOL     OW32665   1.848   3.275   3.995  0.0145 -0.5653 -0.1153
 9063SOL    HW132666   1.851   3.210   3.919 -1.9644 -1.8658  0.8626
 9063SOL    HW232667   1.911   3.246   4.066  1.0578  0.0490 -0.7729
 9064SOL     OW32668   0.053   5.437   1.476 -0.3860  0.2119  0.5129
 9064SOL    HW132669   0.113   5.369   1.434  0.5863  0.4210  1.5338
 9064SOL    HW232670   0.064   5.525   1.429 -1.0922 -0.1480 -0.3303
 9065SOL     OW32671   5.337   8.332   2.273 -0.0250  0.7163  0.7122
 9065SOL    HW132672   5.262   8.293   2.220 -1.1228  2.6142  0.8157
 9065SOL    HW232673   5.399   8.260   2.302 -0.5719 -0.6082 -1.3369
 9066SOL     OW32674   1.838   9.140   1.139  0.3066  0.3444 -0.0503
 9066SOL    HW132675   1.825   9.185   1.051 -0.3706 -0.4792 -0.3777
 9066SOL    HW232676   1.748   9.124   1.181  0.5272 -0.8952 -0.0364
 9067SOL     OW32677   4.365   2.537   3.933  0.0358 -0.0654  0.2620
 9067SOL    HW132678   4.331   2.486   3.854 -0.6720  0.9693 -0.1169
 9067SOL    HW232679   4.288   2.559   3.994  0.2294  1.0662  0.1099
 9068SOL     OW32680   6.268   7.447   2.294 -0.0489  0.6685 -0.7257
 9068SOL    HW132681   6.243   7.421   2.387  1.3828 -2.6471 -1.2007
 9068SOL    HW232682   6.203   7.406   2.230  0.6483  0.5353 -1.3553
 9069SOL     OW32683   0.833   0.852   0.129 -0.1762 -0.0270 -0.3136
 9069SOL    HW132684   0.902   0.831   0.198 -3.1346 -2.9824  1.8865
 9069SOL    HW232685   0.782   0.934   0.156 -0.2864 -0.2715  0.2287
 9070SOL     OW32686   1.963   8.769   1.617  0.3333 -0.3150 -0.2000
 9070SOL    HW132687   1.958   8.779   1.716 -0.5945  0.2245 -0.2984
 9070SOL    HW232688   2.045   8.716   1.593 -0.2689 -1.7811  0.9357
 9071SOL     OW32689   3.775   2.952   3.408  0.2414 -0.2899  0.2879
 9071SOL    HW132690   3.811   2.950   3.501 -0.6545  1.0396  0.6737
 9071SOL    HW232691   3.691   3.006   3.405  0.3012 -0.2449 -1.3096
 9072SOL     OW32692   8.186   6.682   4.436  0.6217 -0.7528  0.1105
 9072SOL    HW132693   8.190   6.608   4.504  1.8526 -0.4338  0.4040
 9072SOL    HW232694   8.216   6.767   4.478 -2.3137  0.2906  0.2214
 9073SOL     OW32695   6.663   9.364   1.365 -0.3018 -0.0498  0.0769
 9073SOL    HW132696   6.736   9.324   1.420 -0.7345 -0.8280  0.0868
 9073SOL    HW232697   6.588   9.299   1.356 -0.6878  0.4740 -0.5473
 9074SOL     OW32698   3.350   2.327   0.103  0.1887 -0.1568 -0.2305
 9074SOL    HW132699   3.430   2.382   0.124  0.3089  1.3486 -4.2491
 9074SOL    HW232700   3.379   2.235   0.075  0.4416  0.0469 -0.6331
 9075SOL     OW32701   7.910   9.875   0.009  0.3420 -0.2047  0.0194
 9075SOL    HW132702   8.006   9.858   0.027  0.5181  0.1952 -0.5237
 9075SOL    HW232703   7.897   9.894  -0.089 -0.2796 -0.2431  0.0925
 9076SOL     OW32704   9.307   5.398   3.389  0.0342 -0.3123  0.1270
 9076SOL    HW132705   9.216   5.419   3.354  0.2133  3.5274  1.8176
 9076SOL    HW232706   9.300   5.366   3.484  0.4851  0.2966  0.3650
 9077SOL     OW32707   2.339   9.983   4.045  0.0884 -0.3192  0.6393
 9077SOL    HW132708   2.320   9.993   3.948 -0.7787 -2.4613  0.5475
 9077SOL    HW232709   2.426   9.935   4.058 -0.0996 -0.5878  0.9109
 9078SOL     OW32710   1.766   8.727   0.471 -0.7313 -0.1451 -0.0484
 9078SOL    HW132711   1.731   8.635   0.454 -3.0066  0.5419  0.6920
 9078SOL    HW232712   1.727   8.790   0.404  0.4908  0.3520 -0.2916
 9079SOL     OW32713   9.276   6.616   1.510  0.3186  0.4739  0.0520
 9079SOL    HW132714   9.344   6.616   1.583 -0.7452  1.2329  1.0629
 9079SOL    HW232715   9.303   6.552   1.438  1.3992 -0.2317  1.0849
 9080SOL     OW32716   5.573   8.598   2.802  0.4296  0.3145  0.4261
 9080SOL    HW132717   5.503   8.542   2.846  1.1508 -1.0492 -0.1535
 9080SOL    HW232718   5.658   8.593   2.853 -0.0886  2.6087  1.5761
 9081SOL     OW32719   4.348   3.642   2.443 -0.3228 -0.4394  0.4415
 9081SOL    HW132720   4.398   3.556   2.441 -1.9074 -1.3659 -0.7690
 9081SOL    HW232721   4.265   3.634   2.388  0.3723  2.4153 -1.1583
 9082SOL     OW32722   3.202   7.007   0.972 -0.0093 -0.3172 -0.7668
 9082SOL    HW132723   3.163   6.915   0.969  2.4102 -1.4389  0.7971
 9082SOL    HW232724   3.291   7.007   0.926  1.6130  0.3627  2.2270
 9083SOL     OW32725   0.872   6.088   3.040 -0.3611  0.0606  0.0570
 9083SOL    HW132726   0.887   6.187   3.046  2.3930 -0.2735 -0.9130
 9083SOL    HW232727   0.928   6.042   3.108  0.1964 -1.0000 -1.1137
 9084SOL     OW32728   9.642   9.728   0.822  0.8004  0.1459 -0.5259
 9084SOL    HW132729   9.548   9.705   0.848  0.7956 -1.4817 -1.8718
 9084SOL    HW232730   9.706   9.667   0.868  1.0292 -0.3365 -1.4670
 9085SOL     OW32731   4.036   0.045   1.229 -0.0563 -0.1376  0.1654
 9085SOL    HW132732   4.081  -0.007   1.302 -0.9263 -2.2899 -0.7874
 9085SOL    HW232733   4.100   0.112   1.193  0.9225 -0.1480  1.8060
 9086SOL     OW32734   8.254   9.932   3.124 -0.4836  0.3778 -0.7870
 9086SOL    HW132735   8.190   9.856   3.110 -1.4969  1.3734 -1.6938
 9086SOL    HW232736   8.209  10.004   3.178  0.0761  0.8211 -0.9018
 9087SOL     OW32737   7.847   3.511   2.440  0.4611  0.3142 -0.0916
 9087SOL    HW132738   7.913   3.446   2.477 -0.4709 -0.2445  0.5939
 9087SOL    HW232739   7.833   3.585   2.505 -0.3697 -0.1103  0.2116
 9088SOL     OW32740   9.741   7.756   0.760  0.0428  0.1226  0.0208
 9088SOL    HW132741   9.752   7.837   0.702  1.7439 -0.4226 -0.4580
 9088SOL    HW232742   9.824   7.742   0.814 -0.3847 -1.0672  0.3916
 9089SOL     OW32743   6.642   1.755   3.039  0.7389  0.0978  0.1779
 9089SOL    HW132744   6.715   1.802   3.089  2.1981 -0.7701 -1.0922
 9089SOL    HW232745   6.665   1.658   3.030 -0.1815 -0.0287 -0.9363
 9090SOL     OW32746   7.351   9.813   4.138 -0.1059 -0.7008 -0.1660
 9090SOL    HW132747   7.274   9.872   4.161 -0.3261 -0.9747 -0.1941
 9090SOL    HW232748   7.321   9.717   4.141  0.0692 -0.7805 -0.7840
 9091SOL     OW32749   9.839   3.908   4.428  0.0304 -0.2649  0.2255
 9091SOL    HW132750   9.812   3.989   4.375 -0.3140 -1.5274 -1.5974
 9091SOL    HW232751   9.926   3.926   4.474  0.4254  0.8302 -0.9147
 9092SOL     OW32752   1.454   2.434   0.474 -0.7591 -0.8367 -0.1728
 9092SOL    HW132753   1.442   2.368   0.401 -2.4928  0.3241 -0.9514
 9092SOL    HW232754   1.386   2.419   0.546  0.5883 -1.6255  0.9844
 9093SOL     OW32755   0.711   7.469   2.035 -0.1585 -1.1986 -0.3240
 9093SOL    HW132756   0.649   7.469   1.957  1.2738 -3.4420 -1.5013
 9093SOL    HW232757   0.658   7.464   2.120 -1.6764  0.0812 -1.1709
 9094SOL     OW32758   2.402   6.240   2.959  0.1665 -0.1249  0.3720
 9094SOL    HW132759   2.366   6.164   3.014  0.0919  0.2856  0.8854
 9094SOL    HW232760   2.345   6.250   2.877 -0.3664 -0.0497  0.7461
 9095SOL     OW32761   2.212   3.593   0.664 -0.4395  0.1135 -0.8883
 9095SOL    HW132762   2.176   3.646   0.587  0.3108  1.6094 -0.2483
 9095SOL    HW232763   2.307   3.567   0.644 -0.7606 -0.8824 -1.1370
 9096SOL     OW32764   4.148   8.965   1.361 -0.2683 -0.2185 -0.8686
 9096SOL    HW132765   4.211   8.965   1.283  0.1297 -0.0559 -0.5480
 9096SOL    HW232766   4.160   9.049   1.414  2.0177 -1.8792  1.4178
 9097SOL     OW32767   3.038   1.433   2.448  0.1463  0.5631  0.7237
 9097SOL    HW132768   2.975   1.379   2.504  0.1012  1.0372  1.1414
 9097SOL    HW232769   3.127   1.438   2.494  0.2821  0.4685  0.4699
 9098SOL     OW32770   7.022   0.676   0.200  0.1729  0.1728  0.2920
 9098SOL    HW132771   6.990   0.621   0.123  1.6209 -1.3851  0.7613
 9098SOL    HW232772   7.090   0.742   0.169 -0.6242  0.8392 -0.0597
 9099SOL     OW32773   2.003   6.723   3.930  0.2068  0.1466 -0.0273
 9099SOL    HW132774   1.997   6.631   3.891 -2.1935  0.4530 -0.4853
 9099SOL    HW232775   1.969   6.790   3.864 -3.6210  0.7187  2.3158
 9100SOL     OW32776   9.528   8.268   4.430 -0.6588 -0.4329  0.0945
 9100SOL    HW132777   9.587   8.299   4.355  0.8600 -0.1044  1.4056
 9100SOL    HW232778   9.584   8.231   4.503 -2.0714  0.0255  1.4341
 9101SOL     OW32779   1.770   2.507   3.823  0.2233 -0.0257  0.8497
 9101SOL    HW132780   1.843   2.444   3.796 -0.3823 -0.6651  0.7047
 9101SOL    HW232781   1.798   2.601   3.802  0.6285 -0.3415 -0.0409
 9102SOL     OW32782   8.485   8.548   2.078 -0.3772 -0.0122  0.0124
 9102SOL    HW132783   8.420   8.524   2.006 -0.8434 -2.4565  1.2038
 9102SOL    HW232784   8.562   8.485   2.076  0.6031  1.1612  0.3731
 9103SOL     OW32785   8.887   3.701   1.728  0.0791  0.3925 -0.0153
 9103SOL    HW132786   8.981   3.735   1.737  0.1812  0.3899 -1.0461
 9103SOL    HW232787   8.826   3.756   1.786  0.6666  0.5908  0.4174
 9104SOL     OW32788   0.533   9.429   1.709 -0.0324 -0.4325  0.1267
 9104SOL    HW132789   0.556   9.475   1.795  0.0330 -0.4147  0.0999
 9104SOL    HW232790   0.545   9.330   1.720  2.9752 -0.2297 -0.7649
 9105SOL     OW32791   2.875   5.347   2.265 -0.2585 -0.2329  0.0739
 9105SOL    HW132792   2.814   5.350   2.344 -0.3203  1.0659 -0.0053
 9105SOL    HW232793   2.951   5.412   2.279  3.0274 -4.1998  1.6687
 9107SOL     OW32794   7.149   0.183   0.684 -0.4595  0.2003 -0.0202
 9107SOL    HW132795   7.138   0.169   0.783 -2.3800  1.3923 -0.0364
 9107SOL    HW232796   7.205   0.265   0.668 -2.7602  1.8438  0.1183
 9108SOL     OW32797   1.306   4.579   0.323 -0.0613  0.1193 -0.1186
 9108SOL    HW132798   1.332   4.638   0.246 -2.3958  1.2608 -0.0747
 9108SOL    HW232799   1.280   4.489   0.288  0.4678  0.1073 -0.4926
 9109SOL     OW32800   0.566   4.521   4.328 -0.0565  0.5071 -0.3252
 9109SOL    HW132801   0.560   4.456   4.404  0.8152 -1.2615 -1.7332
 9109SOL    HW232802   0.661   4.527   4.296 -0.5728  0.4467 -1.9295
 9110SOL     OW32803   9.854   6.533   4.230 -0.1818  0.4567  1.1724
 9110SOL    HW132804   9.827   6.503   4.322 -1.3911 -0.7509  0.4397
 9110SOL    HW232805   9.779   6.515   4.166  0.6834  1.2208 -0.0687
 9112SOL     OW32806   8.138   6.349   4.030  0.0615 -0.1840  0.1734
 9112SOL    HW132807   8.117   6.272   4.091 -1.7227 -0.7783 -1.1510
 9112SOL    HW232808   8.182   6.422   4.083 -0.7109 -1.0160  2.0115
 9113SOL     OW32809   2.431   0.544   0.869 -0.1980  0.2961 -0.3944
 9113SOL    HW132810   2.477   0.630   0.890 -0.1496  0.6816 -1.9927
 9113SOL    HW232811   2.401   0.500   0.954 -0.7694  2.1832  0.4008
 9114SOL     OW32812   8.329   1.758   3.291  0.4376  0.4413  0.2145
 9114SOL    HW132813   8.234   1.769   3.321  0.3216  0.7155 -0.2370
 9114SOL    HW232814   8.350   1.661   3.278 -0.5442  0.4949 -2.0585
 9116SOL     OW32815   6.480   8.390   1.930  0.1048  0.8276 -0.2842
 9116SOL    HW132816   6.544   8.314   1.924  0.4882  1.2448 -1.8783
 9116SOL    HW232817   6.526   8.471   1.965 -0.0009  0.6523  0.2633
 9118SOL     OW32818   6.459   0.610   2.000  0.4150  0.3494 -0.2632
 9118SOL    HW132819   6.508   0.696   1.984  0.0803 -0.0824 -4.1564
 9118SOL    HW232820   6.380   0.606   1.939 -0.2768 -2.1978  0.7647
 9119SOL     OW32821   9.745   4.480   2.315  0.0926  0.1846  0.3955
 9119SOL    HW132822   9.798   4.416   2.372 -0.4775 -0.3689  0.3080
 9119SOL    HW232823   9.746   4.448   2.220 -3.3275 -1.7694  0.9617
 9121SOL     OW32824   9.326   9.964   0.378 -0.8113 -0.3291 -0.1400
 9121SOL    HW132825   9.286  10.053   0.354 -0.7501  0.1398  1.4724
 9121SOL    HW232826   9.394   9.976   0.450  1.1816 -1.3216 -1.8142
 9122SOL     OW32827   5.139   1.799   2.848 -0.0855  0.1930  0.5267
 9122SOL    HW132828   5.130   1.803   2.748  2.2722 -1.2721  0.2076
 9122SOL    HW232829   5.129   1.891   2.886 -1.1775  0.7426 -1.0273
 9123SOL     OW32830   2.385   9.315   3.120 -0.0472  0.1048 -0.1036
 9123SOL    HW132831   2.380   9.415   3.131 -0.1324  0.0360  0.4974
 9123SOL    HW232832   2.427   9.294   3.032  0.7799  0.6785  0.1445
 9124SOL     OW32833   7.066   1.388   3.764 -0.1100 -0.7001 -0.1989
 9124SOL    HW132834   7.003   1.452   3.808 -1.5092 -2.0954 -0.0778
 9124SOL    HW232835   7.013   1.324   3.708  1.1602 -2.2076  0.2914
 9125SOL     OW32836   0.436   1.594   4.186  0.1940  0.2258  0.0739
 9125SOL    HW132837   0.532   1.580   4.163  0.4809 -0.8440  1.7852
 9125SOL    HW232838   0.383   1.514   4.159 -0.3818  1.1616 -1.6351
 9127SOL     OW32839   2.766   3.397   3.871  0.3226  0.6253 -0.8166
 9127SOL    HW132840   2.752   3.433   3.779  0.2312  2.6979 -0.0375
 9127SOL    HW232841   2.785   3.473   3.934  0.5672 -0.7642  0.8420
 9128SOL     OW32842   1.271   2.442   3.847 -0.2097  0.0099 -0.3507
 9128SOL    HW132843   1.266   2.347   3.878 -0.5332 -0.0966 -0.7196
 9128SOL    HW232844   1.346   2.488   3.893 -0.2657 -0.3312  0.0888
 9129SOL     OW32845   4.178   4.158   1.346 -0.2123  0.3221  0.0522
 9129SOL    HW132846   4.088   4.201   1.351 -1.1663 -1.6503  0.2290
 9129SOL    HW232847   4.175   4.068   1.390  1.2753 -0.6980 -1.8267
 9130SOL     OW32848   0.543   0.148   1.695 -0.5065  0.4835 -0.3092
 9130SOL    HW132849   0.473   0.182   1.632  0.7032 -0.0282 -1.9476
 9130SOL    HW232850   0.632   0.149   1.650  0.4382  0.4199  1.5118
 9131SOL     OW32851   9.768   8.541   1.422 -0.1497 -0.0586  0.5311
 9131SOL    HW132852   9.727   8.493   1.499 -0.5536  0.2586  0.5198
 9131SOL    HW232853   9.761   8.485   1.340 -1.1205  0.2394  0.4000
 9132SOL     OW32854   1.786   7.655   0.274 -1.1154 -0.1102  0.5784
 9132SOL    HW132855   1.775   7.571   0.221 -1.8967  0.5224 -0.2979
 9132SOL    HW232856   1.699   7.703   0.278 -0.1390  1.9176 -1.1391
 9133SOL     OW32857   9.278   8.498   1.243 -0.0409 -0.0230  0.1285
 9133SOL    HW132858   9.185   8.518   1.273 -0.1842  1.0583 -0.9863
 9133SOL    HW232859   9.342   8.517   1.318 -0.7255 -1.0024  0.9769
 9134SOL     OW32860   3.147   4.142   3.768 -0.0845 -0.3778 -0.3137
 9134SOL    HW132861   3.090   4.080   3.822 -0.3924 -0.9894 -1.3308
 9134SOL    HW232862   3.089   4.202   3.713  0.1838  1.5149  1.3954
 9136SOL     OW32863   7.682   0.651   4.172  0.2717  0.2474  0.0550
 9136SOL    HW132864   7.702   0.665   4.269  0.8487 -0.3836  0.0292
 9136SOL    HW232865   7.675   0.553   4.153  2.1424  0.2776 -0.9243
 9137SOL     OW32866   6.267   7.009   2.728 -0.1383 -0.3381 -0.0932
 9137SOL    HW132867   6.172   7.040   2.740 -0.3556 -0.8647 -0.4336
 9137SOL    HW232868   6.301   7.040   2.640 -0.2381 -0.7595 -0.2822
 9138SOL     OW32869   4.394   8.392   0.195 -0.2076 -1.0027  0.1834
 9138SOL    HW132870   4.451   8.471   0.220 -0.7724 -0.5937  0.1972
 9138SOL    HW232871   4.317   8.386   0.259 -0.7464 -0.9433 -0.4615
 9139SOL     OW32872   0.293   7.301   2.451  0.6119 -0.1206 -0.9631
 9139SOL    HW132873   0.246   7.214   2.434  0.0829  0.0862 -0.5460
 9139SOL    HW232874   0.291   7.322   2.548 -0.5244  1.0797 -1.2332
 9140SOL     OW32875   8.314   8.023   4.329  0.3838 -0.0917 -0.5803
 9140SOL    HW132876   8.285   7.992   4.420 -0.1984 -1.1334 -1.1196
 9140SOL    HW232877   8.274   8.113   4.311 -1.6598 -1.0204 -0.8702
 9141SOL     OW32878   0.440   8.671   4.022 -0.4878 -0.5693  0.0358
 9141SOL    HW132879   0.507   8.611   4.067 -0.7925 -0.3859  0.7486
 9141SOL    HW232880   0.402   8.624   3.943  1.3451 -0.2232 -1.0860
 9143SOL     OW32881   5.650   6.669   2.002  0.2224 -0.2587 -0.5235
 9143SOL    HW132882   5.662   6.655   2.101 -0.5535  1.5951 -0.1420
 9143SOL    HW232883   5.566   6.721   1.986 -0.7956 -2.3482 -2.3257
 9144SOL     OW32884   7.137   9.990   4.289 -0.0234  0.2097 -0.5006
 9144SOL    HW132885   7.081  10.069   4.312  1.5370  1.5707 -1.2773
 9144SOL    HW232886   7.175   9.950   4.373 -1.7802 -0.4788 -0.0058
 9145SOL     OW32887   7.609   3.628   1.518  0.1511  0.0974 -0.1018
 9145SOL    HW132888   7.560   3.597   1.599  0.9178  0.4875  0.5164
 9145SOL    HW232889   7.706   3.638   1.540  0.4971 -0.5741 -1.2864
 9146SOL     OW32890   7.286   9.636   3.260  0.3595 -0.2650 -0.1524
 9146SOL    HW132891   7.314   9.626   3.165  1.6433 -1.6930  0.3644
 9146SOL    HW232892   7.268   9.732   3.280 -0.3004 -0.0042 -1.9317
 9147SOL     OW32893   8.987   0.043   1.321  0.7045  0.2315  0.1217
 9147SOL    HW132894   9.046   0.008   1.248  1.6909  0.7642  0.6615
 9147SOL    HW232895   8.906  -0.014   1.328 -0.0577  0.9496 -2.3044
 9148SOL     OW32896   3.695   3.419   3.048 -0.3195 -0.0088  0.3548
 9148SOL    HW132897   3.620   3.392   3.108  0.0146  0.5552  1.0288
 9148SOL    HW232898   3.764   3.469   3.100  0.7329 -0.8863 -0.1795
 9150SOL     OW32899   0.519   5.459   0.185 -0.6121 -0.2503  0.6957
 9150SOL    HW132900   0.460   5.379   0.172  0.0134 -0.5292 -0.5193
 9150SOL    HW232901   0.614   5.430   0.184 -0.3476  0.6711 -0.9617
 9151SOL     OW32902   8.573   0.060   0.118  0.2980  0.0358  0.0168
 9151SOL    HW132903   8.536  -0.031   0.136  0.1230 -0.1277 -1.1733
 9151SOL    HW232904   8.499   0.127   0.117  0.4973  0.3075  1.5494
 9152SOL     OW32905   0.100   6.549   0.265 -0.3235  0.2427 -0.2565
 9152SOL    HW132906   0.017   6.508   0.228 -0.3636  0.7326 -0.7115
 9152SOL    HW232907   0.086   6.572   0.362 -0.5677 -0.0760 -0.2168
 9153SOL     OW32908   1.267   4.638   1.881 -0.0377 -0.2443  0.4919
 9153SOL    HW132909   1.203   4.574   1.838  0.5699 -0.5021 -0.0437
 9153SOL    HW232910   1.226   4.730   1.881  0.6367  0.1269 -2.2830
 9154SOL     OW32911   5.153   2.998   0.888 -0.2835 -0.3363 -0.0978
 9154SOL    HW132912   5.226   2.982   0.822  0.2588 -1.9083  0.8665
 9154SOL    HW232913   5.080   2.931   0.875 -1.5829  1.2284 -1.0621
 9155SOL     OW32914   4.577   2.348   2.968 -0.0490  0.1308  0.1746
 9155SOL    HW132915   4.650   2.416   2.976  1.0491 -0.9826 -0.3285
 9155SOL    HW232916   4.499   2.376   3.025  1.1443  0.8323  1.4851
 9158SOL     OW32917   6.177   8.371   1.478  0.5019 -0.1223  0.2302
 9158SOL    HW132918   6.085   8.353   1.512  0.2497  1.5262  0.4834
 9158SOL    HW232919   6.230   8.286   1.477 -1.1764 -1.1810 -0.4163
 9159SOL     OW32920   0.557   4.907   3.111  0.2959  0.3227  0.3452
 9159SOL    HW132921   0.610   4.958   3.043 -0.6625 -0.7296 -1.2257
 9159SOL    HW232922   0.506   4.971   3.168  0.4436  1.2010 -0.4898
 9160SOL     OW32923   9.953   1.941   3.183 -0.2154  0.1287 -0.0434
 9160SOL    HW132924   9.965   1.850   3.142  2.8478  0.7820 -0.6899
 9160SOL    HW232925  10.010   1.948   3.265 -1.3829  1.0690  0.6952
 9161SOL     OW32926   5.181   8.490   1.944  0.1250  0.3372 -0.2421
 9161SOL    HW132927   5.220   8.464   1.855  0.7348 -0.8607  0.3633
 9161SOL    HW232928   5.254   8.525   2.003 -0.0382 -0.1928  0.2712
 9162SOL     OW32929   0.960   3.546   3.081 -0.1701 -0.5051 -0.4829
 9162SOL    HW132930   0.905   3.476   3.036 -1.0206  0.6023 -1.2231
 9162SOL    HW232931   0.904   3.628   3.094  0.9129  0.1667  0.0218
 9163SOL     OW32932   9.460   4.921   1.566 -0.7344 -0.4966 -0.1904
 9163SOL    HW132933   9.483   4.989   1.635  2.3273 -1.3560 -0.2812
 9163SOL    HW232934   9.419   4.841   1.610  1.9887 -1.3936  0.8215
 9164SOL     OW32935   3.214   9.007   3.189  0.2101  0.4449 -0.1254
 9164SOL    HW132936   3.192   8.933   3.125  0.7499 -0.3466  0.5954
 9164SOL    HW232937   3.190   8.979   3.282 -1.1087  1.8097 -0.0303
 9165SOL     OW32938   2.304   4.151   4.393  0.2135 -0.3666 -0.1432
 9165SOL    HW132939   2.395   4.192   4.381 -0.2826  0.4045 -1.3691
 9165SOL    HW232940   2.248   4.212   4.449  0.3849 -0.7508  0.4504
 9166SOL     OW32941   8.017   1.715   2.290 -0.7578 -0.1063  0.2119
 9166SOL    HW132942   8.060   1.711   2.200  0.4055 -0.1502  0.7648
 9166SOL    HW232943   8.019   1.624   2.332 -1.9056 -0.2314  0.0025
 9168SOL     OW32944   9.436   1.268   1.258 -0.0118  0.0949 -0.1400
 9168SOL    HW132945   9.476   1.239   1.172  0.9028 -2.5629  1.1212
 9168SOL    HW232946   9.484   1.349   1.292  1.0109 -0.1086 -1.0953
 9169SOL     OW32947   0.532   0.056   4.356 -0.1594 -0.2110 -0.0462
 9169SOL    HW132948   0.484   0.027   4.439 -1.0819  0.9855 -0.1495
 9169SOL    HW232949   0.467   0.062   4.281 -0.1244  2.6916  0.1094
 9170SOL     OW32950   9.696   4.712   0.731  0.4850 -0.5812 -0.5866
 9170SOL    HW132951   9.704   4.810   0.744  1.0927 -0.6505 -0.4189
 9170SOL    HW232952   9.650   4.693   0.645 -0.5565 -0.1415 -0.1382
 9171SOL     OW32953   4.534   9.660   1.859  0.0079 -0.1781 -0.3665
 9171SOL    HW132954   4.468   9.710   1.916 -0.2865 -1.5408  0.5111
 9171SOL    HW232955   4.488   9.583   1.814  1.4844 -2.7761  2.3453
 9172SOL     OW32956   4.468   0.610   2.194  0.6816  0.0896 -0.7808
 9172SOL    HW132957   4.380   0.572   2.167  1.2755 -1.4534 -0.5971
 9172SOL    HW232958   4.454   0.680   2.264 -0.5763  1.5798 -2.4641
 9175SOL     OW32959   7.741   3.417   1.025  0.0940  0.2119  0.2857
 9175SOL    HW132960   7.672   3.387   1.091 -0.2941  2.8732  1.1333
 9175SOL    HW232961   7.801   3.340   1.004 -1.3863 -1.3879  1.7233
 9176SOL     OW32962   5.360   0.622   3.617  0.3908  0.2801  0.5652
 9176SOL    HW132963   5.373   0.601   3.714  0.2770  1.8255  0.9237
 9176SOL    HW232964   5.367   0.538   3.564  0.3374 -0.5999  1.9254
 9177SOL     OW32965   8.526   6.039   3.030  0.1068  0.5899  0.4145
 9177SOL    HW132966   8.617   6.040   2.989 -0.6427 -0.3749 -1.3327
 9177SOL    HW232967   8.472   5.965   2.990 -0.8708 -0.0131  2.7458
 9178SOL     OW32968   8.349   7.370   2.914 -0.5671  0.2169 -0.4526
 9178SOL    HW132969   8.360   7.308   2.837  1.4511  0.1446 -0.1197
 9178SOL    HW232970   8.256   7.361   2.951  0.0717 -3.6581  0.4550
 9179SOL     OW32971   1.481   4.370   0.523 -0.0335  0.4879 -0.1766
 9179SOL    HW132972   1.440   4.458   0.547  0.1189  0.6583 -0.5316
 9179SOL    HW232973   1.422   4.296   0.555 -2.2479  0.7271 -3.4281
 9181SOL     OW32974   7.294   6.840   2.457  0.0288  0.5584  0.0026
 9181SOL    HW132975   7.360   6.799   2.393 -0.8944 -2.7738  1.0426
 9181SOL    HW232976   7.342   6.900   2.520  1.6595  0.2729 -0.9371
 9182SOL     OW32977   9.338   6.946   3.507 -0.5466  0.2027 -0.3616
 9182SOL    HW132978   9.382   6.886   3.440 -0.5198  0.0441 -0.2011
 9182SOL    HW232979   9.249   6.975   3.472 -0.3579  0.4408 -0.6410
 9183SOL     OW32980   9.623   9.430   1.235 -0.1217  0.3654 -0.3446
 9183SOL    HW132981   9.613   9.340   1.277  0.3105 -0.2581 -1.5470
 9183SOL    HW232982   9.536   9.458   1.194 -0.1880  0.3795 -0.1912
 9184SOL     OW32983   8.853   3.178   1.814 -0.0715 -0.1628 -0.0875
 9184SOL    HW132984   8.825   3.186   1.910  1.6187  0.8567  0.3439
 9184SOL    HW232985   8.853   3.269   1.772  2.6167 -0.1105 -0.0457
 9185SOL     OW32986   1.637   0.300   1.571  0.3925  0.3157  0.0657
 9185SOL    HW132987   1.667   0.380   1.624  0.5661  0.6555 -0.5385
 9185SOL    HW232988   1.557   0.324   1.516 -0.5476 -0.3859  1.1041
 9186SOL     OW32989   4.753   4.141   0.202 -0.5923 -0.4372  0.0250
 9186SOL    HW132990   4.804   4.195   0.268 -1.4287  0.7077 -0.2576
 9186SOL    HW232991   4.704   4.067   0.249 -3.3456  1.9697  1.0655
 9187SOL     OW32992   3.362   7.368   2.070  0.4866 -0.1700 -0.1565
 9187SOL    HW132993   3.294   7.299   2.046  0.9606 -0.8158  0.3570
 9187SOL    HW232994   3.452   7.339   2.040  0.6677  0.2892 -0.0640
 9189SOL     OW32995   9.300   3.191   2.077  0.1842  0.3482  0.4104
 9189SOL    HW132996   9.388   3.233   2.055 -0.0449  1.4226  1.4644
 9189SOL    HW232997   9.309   3.091   2.074  1.0143  0.4526 -1.0690
 9193SOL     OW32998   7.614   8.640   4.250  0.0619  0.1095  0.0966
 9193SOL    HW132999   7.587   8.544   4.243 -1.7440  0.6999 -1.4206
 9193SOL    HW233000   7.699   8.654   4.200 -1.4754 -0.0434 -2.6465
 9196SOL     OW33001   2.478   0.748   1.185 -0.8233  0.4265  0.1789
 9196SOL    HW133002   2.536   0.720   1.261  1.0662  1.1920 -0.9554
 9196SOL    HW233003   2.455   0.845   1.194  2.8659  1.6412 -2.3405
 9197SOL     OW33004   8.057   5.310   3.861  0.5620  0.2365 -0.0091
 9197SOL    HW133005   8.111   5.250   3.920 -1.0880 -0.1508  1.1362
 9197SOL    HW233006   8.047   5.267   3.771  0.0836 -0.8434  0.5455
 9198SOL     OW33007   9.635   4.406   0.583  0.2881 -0.7434  0.2745
 9198SOL    HW133008   9.657   4.354   0.500 -0.0239 -0.5186  0.0485
 9198SOL    HW233009   9.614   4.500   0.558  1.0774 -0.4486  0.7089
 9199SOL     OW33010   9.742   8.696   0.542 -0.2598  0.4622  0.7939
 9199SOL    HW133011   9.748   8.685   0.443  3.7885  1.7119  0.8212
 9199SOL    HW233012   9.707   8.612   0.583 -0.3477 -0.6690 -1.5440
 9200SOL     OW33013   3.348   4.169   3.573 -0.0672 -0.2570  0.3979
 9200SOL    HW133014   3.440   4.134   3.591  0.6666  2.0952  1.3553
 9200SOL    HW233015   3.289   4.150   3.652  0.3307  0.6775  0.9192
 9201SOL     OW33016   1.906   0.609   0.220 -0.3262  0.3954  0.0582
 9201SOL    HW133017   1.916   0.673   0.296 -2.3113 -0.8994  1.4259
 9201SOL    HW233018   1.972   0.534   0.231 -1.1159 -0.1844  0.9301
 9202SOL     OW33019   4.239   3.925   3.834 -0.5120 -0.6228  0.2964
 9202SOL    HW133020   4.260   4.018   3.804 -0.0096 -1.2968 -1.5184
 9202SOL    HW233021   4.197   3.928   3.925  3.3910  1.1056  2.1936
 9203SOL     OW33022   7.934   1.350   0.943 -0.1588 -0.4229  0.3426
 9203SOL    HW133023   7.959   1.446   0.931  0.3089 -0.5076  0.6316
 9203SOL    HW233024   8.006   1.291   0.907  0.3132 -0.6686  1.6542
 9204SOL     OW33025   0.906   3.208   3.131 -0.9229 -0.5457 -0.3334
 9204SOL    HW133026   0.893   3.210   3.230 -2.1137 -0.7251 -0.4841
 9204SOL    HW233027   1.004   3.216   3.110 -0.5711 -1.4826  0.8923
 9205SOL     OW33028   2.263   4.326   0.507  0.0552  0.1874  0.2811
 9205SOL    HW133029   2.355   4.330   0.469  0.3550  0.7691  1.0708
 9205SOL    HW233030   2.268   4.308   0.606 -0.6579  0.6885  0.4137
 9209SOL     OW33031   9.616   9.982   3.450 -0.0929  0.0445  0.0090
 9209SOL    HW133032   9.638  10.013   3.358 -1.1843 -0.9912 -0.6114
 9209SOL    HW233033   9.656  10.045   3.517  1.5179  0.2573 -1.1444
 9210SOL     OW33034   3.236   5.743   0.319  0.1893 -0.2345 -0.1980
 9210SOL    HW133035   3.239   5.770   0.415 -0.2388  0.8966 -0.5060
 9210SOL    HW233036   3.255   5.645   0.313 -0.7457 -0.5215  1.1274
 9211SOL     OW33037   4.697   8.375   2.013  0.4136  0.1516 -0.2654
 9211SOL    HW133038   4.690   8.305   1.942 -0.1771  0.0933 -0.1534
 9211SOL    HW233039   4.776   8.433   1.995  0.3508  0.0440 -0.8953
 9212SOL     OW33040   0.733   6.904   4.161  0.2067 -0.0081  0.6767
 9212SOL    HW133041   0.746   7.002   4.147  1.1060  0.0640  1.9701
 9212SOL    HW233042   0.741   6.857   4.072  1.8471  0.8695  0.3454
 9213SOL     OW33043   3.967   4.255   0.853 -0.0351  0.4917  1.2904
 9213SOL    HW133044   3.986   4.310   0.934  2.7239 -0.1243  1.1122
 9213SOL    HW233045   4.043   4.192   0.836 -2.3158 -2.1603  0.4711
 9214SOL     OW33046   6.230   0.560   4.191  0.5197  0.1564 -0.2793
 9214SOL    HW133047   6.222   0.634   4.124  0.8728 -1.8234 -2.5736
 9214SOL    HW233048   6.265   0.597   4.277 -0.1751  2.7965 -1.0877
 9215SOL     OW33049   4.114   8.615   2.567  0.4562 -0.1416 -0.9114
 9215SOL    HW133050   4.088   8.610   2.663 -0.7007 -2.2837 -1.3011
 9215SOL    HW233051   4.038   8.583   2.510  1.5177  0.0420 -2.4665
 9216SOL     OW33052   3.593   1.019   2.104  0.0763 -0.7515 -0.0989
 9216SOL    HW133053   3.691   1.019   2.124  0.6927 -0.5915 -2.8588
 9216SOL    HW233054   3.569   1.100   2.051 -1.4487 -1.0431  0.1120
 9217SOL     OW33055   2.335   4.977   3.199 -0.0338 -0.3548  0.0898
 9217SOL    HW133056   2.403   4.936   3.137  0.2174 -0.4477  0.4244
 9217SOL    HW233057   2.284   5.048   3.151  1.3087  0.7355  0.2666
 9218SOL     OW33058   2.141   9.646   3.925  0.1407 -0.0796 -0.1442
 9218SOL    HW133059   2.152   9.734   3.879 -0.8737  0.1111 -0.0503
 9218SOL    HW233060   2.136   9.660   4.024  2.1686 -0.4753  0.0223
 9219SOL     OW33061   8.710   7.938   3.424  0.4446  0.3857 -0.2023
 9219SOL    HW133062   8.661   8.025   3.435 -0.3561  0.0947 -1.4931
 9219SOL    HW233063   8.801   7.946   3.467  0.7247  2.1493 -1.0872
 9220SOL     OW33064   3.754   7.712   4.430 -0.8993 -0.2177  0.1665
 9220SOL    HW133065   3.798   7.622   4.433 -1.7018 -0.6060  0.5213
 9220SOL    HW233066   3.737   7.744   4.523  2.6981  1.9709  0.1277
 9221SOL     OW33067   1.847   1.184   0.136 -0.6388 -0.1352 -0.8969
 9221SOL    HW133068   1.933   1.228   0.161 -0.6443  0.2520 -1.5490
 9221SOL    HW233069   1.864   1.118   0.062 -0.4681 -1.9052  0.6916
 9222SOL     OW33070   3.650   1.555   3.692  0.1005 -0.5009 -0.5970
 9222SOL    HW133071   3.561   1.510   3.686  0.0155 -0.5461  0.9083
 9222SOL    HW233072   3.695   1.552   3.602 -1.6172 -0.0490 -1.4970
 9223SOL     OW33073   8.899   8.448   1.266  0.0641  0.4500  0.3364
 9223SOL    HW133074   8.823   8.506   1.239  0.5562  0.9278 -0.0278
 9223SOL    HW233075   8.869   8.353   1.269 -0.6875  0.7006  0.7403
 9224SOL     OW33076   5.628   9.557   3.299 -0.3714  0.4223  0.3361
 9224SOL    HW133077   5.554   9.537   3.235  0.7105 -0.9293 -0.5261
 9224SOL    HW233078   5.709   9.589   3.248  0.0267  0.7485  1.1562
 9225SOL     OW33079   9.739   7.473   1.566 -0.2486  0.5244  0.3486
 9225SOL    HW133080   9.770   7.521   1.484 -1.6933 -0.9050 -1.0807
 9225SOL    HW233081   9.641   7.453   1.557  0.1974 -2.1922  1.1215
 9226SOL     OW33082   3.227   0.391   3.894 -0.1335  0.3187 -0.4090
 9226SOL    HW133083   3.241   0.488   3.913  0.2428  0.2611 -0.3867
 9226SOL    HW233084   3.171   0.380   3.812  0.0005  0.5516 -0.5307
 9227SOL     OW33085   4.934   0.665   3.735  0.1503  0.0806  0.1618
 9227SOL    HW133086   4.863   0.728   3.703 -0.9771 -1.6571 -0.8650
 9227SOL    HW233087   5.021   0.713   3.741 -0.7177  1.7849 -0.3831
 9228SOL     OW33088   6.352   8.522   3.528 -0.1353  0.0771  0.6231
 9228SOL    HW133089   6.301   8.600   3.492 -1.4379 -0.2346  1.7738
 9228SOL    HW233090   6.413   8.487   3.457 -1.2122  0.7255 -0.6457
 9229SOL     OW33091   0.626   9.801   2.213  0.2673  0.2355 -0.7497
 9229SOL    HW133092   0.708   9.751   2.187 -0.1084 -1.0132  0.3551
 9229SOL    HW233093   0.558   9.736   2.247 -1.4701  1.1557 -2.3661
 9230SOL     OW33094   8.615   6.474   1.096 -0.1548 -0.1377  0.0697
 9230SOL    HW133095   8.674   6.437   1.167 -0.3286  2.1719  1.4895
 9230SOL    HW233096   8.520   6.473   1.128 -0.4669 -0.6818 -0.8440
 9231SOL     OW33097   1.619   8.313   1.766  0.1196 -0.1225 -0.4028
 9231SOL    HW133098   1.702   8.361   1.738  1.1029 -1.1869  0.6075
 9231SOL    HW233099   1.585   8.352   1.852  0.0566 -0.2322 -0.3768
 9232SOL     OW33100   1.227   4.598   3.119  0.8563 -0.1215  0.1581
 9232SOL    HW133101   1.225   4.515   3.064 -1.5901  0.4663 -0.7098
 9232SOL    HW233102   1.297   4.660   3.083  1.7312 -1.2061 -0.0453
 9233SOL     OW33103   4.559   6.941   2.202 -0.4444 -0.0682 -0.7080
 9233SOL    HW133104   4.517   6.887   2.275 -0.1239 -0.1605 -0.5941
 9233SOL    HW233105   4.487   6.984   2.147 -0.6949 -0.4020 -0.6433
 9234SOL     OW33106   9.667   6.193   1.193 -0.6761 -0.3258  0.5413
 9234SOL    HW133107   9.658   6.283   1.236  0.4405  0.3596 -0.6393
 9234SOL    HW233108   9.672   6.123   1.265  0.4000  0.7310  1.5263
 9235SOL     OW33109   0.948   9.173   2.359 -0.0417  0.1644 -0.1639
 9235SOL    HW133110   0.856   9.213   2.349 -1.3562 -2.3829  1.2258
 9235SOL    HW233111   0.987   9.200   2.447 -0.2615 -0.2790  0.0725
 9236SOL     OW33112   4.047   9.920   3.869 -0.1997 -0.8754 -0.1859
 9236SOL    HW133113   4.088   9.950   3.782 -1.7697  0.1486 -0.5906
 9236SOL    HW233114   4.026   9.823   3.864  0.4092 -0.9886 -0.6787
 9237SOL     OW33115   1.603   8.515   2.470  0.3225 -0.4079  0.2459
 9237SOL    HW133116   1.578   8.608   2.446 -0.7027 -1.1595 -1.6869
 9237SOL    HW233117   1.702   8.505   2.466  0.5651  1.0012  2.0507
 9239SOL     OW33118   8.141   7.234   1.635  0.1432 -0.0277 -0.2039
 9239SOL    HW133119   8.134   7.153   1.578 -0.1977  0.5573 -1.0123
 9239SOL    HW233120   8.110   7.314   1.583  0.8625  0.6802  0.4316
 9242SOL     OW33121   3.701   8.330   0.726 -0.1780  0.7963  0.1086
 9242SOL    HW133122   3.652   8.382   0.796 -1.3254 -0.7857  0.4932
 9242SOL    HW233123   3.754   8.257   0.769 -0.3624  0.2298 -0.6178
 9243SOL     OW33124   8.036   3.579   1.874 -0.1011  0.2090 -0.1659
 9243SOL    HW133125   7.985   3.665   1.876 -1.3294 -0.4964 -0.7123
 9243SOL    HW233126   8.017   3.527   1.957  2.0452  1.2455  1.0124
 9244SOL     OW33127   2.166   1.853   2.411  0.4244  0.2266  0.4195
 9244SOL    HW133128   2.137   1.937   2.457  0.6498  0.9021 -0.6559
 9244SOL    HW233129   2.244   1.813   2.460  1.7846  1.8776 -0.3710
 9245SOL     OW33130   2.696   0.440   0.072 -0.0356  0.3055 -0.2263
 9245SOL    HW133131   2.780   0.387   0.066 -0.5670 -0.6969  1.0328
 9245SOL    HW233132   2.687   0.479   0.164 -0.3326  1.4467 -0.7238
 9246SOL     OW33133   9.432   2.078   0.829  0.0482  0.0907  0.9337
 9246SOL    HW133134   9.448   2.015   0.753 -1.2786  0.5391  0.2773
 9246SOL    HW233135   9.398   2.026   0.908  0.6755 -0.2632  0.9757
 9247SOL     OW33136   8.040   7.156   0.867 -0.4085 -0.0717  0.9890
 9247SOL    HW133137   7.960   7.107   0.903  0.1713 -1.7423  0.0658
 9247SOL    HW233138   8.050   7.137   0.769 -0.3356  2.1647  0.5340
 9248SOL     OW33139   2.853   0.819   0.303 -0.1656  0.2655 -0.4243
 9248SOL    HW133140   2.945   0.798   0.271  1.0394  2.4517  1.4442
 9248SOL    HW233141   2.858   0.869   0.390 -3.1629 -1.3915  0.8148
 9250SOL     OW33142   3.296   1.875   2.401 -0.3909 -0.3864  0.2123
 9250SOL    HW133143   3.214   1.932   2.393 -0.0433  0.3180  1.5043
 9250SOL    HW233144   3.378   1.933   2.396  0.1081 -1.2006 -2.2532
 9254SOL     OW33145   8.490   4.215   3.324  0.6236 -0.1063  0.1553
 9254SOL    HW133146   8.417   4.149   3.341 -0.2018  0.8302  0.3038
 9254SOL    HW233147   8.573   4.167   3.296 -0.2600 -1.1405 -0.7393
 9255SOL     OW33148   0.081   3.333   1.952  0.1839 -0.2375  0.2201
 9255SOL    HW133149   0.148   3.377   1.892  0.2303  0.3667  0.7105
 9255SOL    HW233150   0.078   3.382   2.039 -3.1411  1.6273 -0.8773
 9256SOL     OW33151   8.287   5.333   3.423  0.2400  0.2164 -0.1827
 9256SOL    HW133152   8.262   5.326   3.326  1.7845 -1.2591 -0.4970
 9256SOL    HW233153   8.241   5.412   3.463 -2.7376 -0.8114 -1.4058
 9258SOL     OW33154   2.138   4.386   2.027  0.1988 -0.0413 -0.0954
 9258SOL    HW133155   2.106   4.294   2.052 -0.4328 -0.3174 -1.8427
 9258SOL    HW233156   2.235   4.383   2.005  0.0896 -0.3832 -0.5439
 9259SOL     OW33157   3.046   8.753   4.310  0.0570 -0.1688  0.0533
 9259SOL    HW133158   3.116   8.683   4.323  0.4084  0.5367  2.2759
 9259SOL    HW233159   3.081   8.841   4.344 -2.1891  0.0173  1.9478
 9262SOL     OW33160   8.938   7.869   2.026 -0.1765  0.1063 -0.8205
 9262SOL    HW133161   8.839   7.885   2.021 -0.3538 -0.9315 -0.7175
 9262SOL    HW233162   8.973   7.850   1.934  0.2360  2.1990 -1.1186
 9263SOL     OW33163   8.578   9.236   3.585 -0.3176 -0.2517 -0.0950
 9263SOL    HW133164   8.669   9.247   3.626 -1.4860  1.2486  2.1915
 9263SOL    HW233165   8.569   9.142   3.551  2.1787 -0.3460 -0.6301
 9264SOL     OW33166   4.421   1.575   1.090  0.0135  0.5034  0.5489
 9264SOL    HW133167   4.413   1.477   1.072 -1.1816  0.8014 -0.6282
 9264SOL    HW233168   4.371   1.598   1.173  0.5584  0.0747  1.0012
 9265SOL     OW33169   9.475   8.148   1.359  0.6789 -0.3219 -0.8828
 9265SOL    HW133170   9.430   8.059   1.354  2.5295 -1.2947 -0.4817
 9265SOL    HW233171   9.489   8.173   1.455  2.9987 -1.0708 -1.0034
 9266SOL     OW33172   6.731   8.625   2.677 -0.2629  0.2298 -0.3051
 9266SOL    HW133173   6.653   8.656   2.731  1.4612 -0.5069  2.7153
 9266SOL    HW233174   6.807   8.601   2.738  1.3674 -1.7846 -2.9984
 9267SOL     OW33175   1.112   3.093   2.795 -0.1304 -0.3372 -0.4935
 9267SOL    HW133176   1.018   3.095   2.763 -0.4360  0.2278  0.4052
 9267SOL    HW233177   1.166   3.159   2.744 -0.7523  1.0053  0.5260
 9269SOL     OW33178   8.137   1.950   2.942  0.0577 -0.0727  0.3704
 9269SOL    HW133179   8.174   2.038   2.973  0.1718 -0.3118  0.9053
 9269SOL    HW233180   8.206   1.903   2.887  0.2883 -0.1900  0.7580
 9272SOL     OW33181   0.053   1.127   1.971  0.6983  0.3559  0.4693
 9272SOL    HW133182  -0.032   1.110   1.922  0.3771  1.0637  0.7783
 9272SOL    HW233183   0.052   1.077   2.058  0.9834 -0.3584  0.0650
 9273SOL     OW33184   9.839   6.004   2.874 -0.1222  0.6196 -0.0409
 9273SOL    HW133185   9.804   5.976   2.963 -1.5608 -0.3794 -0.8765
 9273SOL    HW233186   9.933   5.971   2.862 -0.3036 -0.1841  0.6887
 9274SOL     OW33187   7.858   9.851   4.291  0.1558  0.1210  0.1370
 9274SOL    HW133188   7.763   9.880   4.308 -0.7549 -0.7374 -3.1088
 9274SOL    HW233189   7.911   9.930   4.260 -0.5716 -0.1887 -1.9873
 9275SOL     OW33190   0.422   5.965   3.806  0.3654  0.3135  0.3546
 9275SOL    HW133191   0.398   6.017   3.889  2.1581 -0.4635  1.3856
 9275SOL    HW233192   0.518   5.983   3.783  0.9304 -2.2655  0.5486
 9276SOL     OW33193   2.988   3.600   3.715 -0.3199  0.0688  0.0159
 9276SOL    HW133194   3.023   3.511   3.744 -0.2879  0.0652 -0.0340
 9276SOL    HW233195   2.929   3.588   3.635  0.6554  0.2296 -0.7352
 9277SOL     OW33196   2.222   5.576   1.168  0.3499  0.1522  0.6518
 9277SOL    HW133197   2.202   5.648   1.101 -0.3171 -0.1453  0.5305
 9277SOL    HW233198   2.320   5.559   1.169  0.5639  1.3250  0.9506
 9278SOL     OW33199   7.166   0.101   4.053 -0.8260 -0.3077 -0.1541
 9278SOL    HW133200   7.205   0.188   4.084 -1.3386  0.0259 -0.4193
 9278SOL    HW233201   7.157   0.039   4.131 -1.7972  0.4050  0.3213
 9279SOL     OW33202   2.035   3.554   1.400  0.1696 -0.7649  0.1238
 9279SOL    HW133203   1.964   3.625   1.405  3.1423  2.1989  2.1727
 9279SOL    HW233204   2.094   3.572   1.322  1.6331 -0.2106  1.3213
 9280SOL     OW33205   4.187   3.186   0.646  0.2551 -0.4648 -0.3100
 9280SOL    HW133206   4.282   3.210   0.665  0.1776 -1.0023  0.8311
 9280SOL    HW233207   4.184   3.105   0.587  0.4941 -0.5071 -0.2612
 9281SOL     OW33208   1.556   8.238   1.504 -0.0391  0.0243  0.2128
 9281SOL    HW133209   1.579   8.231   1.601  1.4161 -1.9738 -0.2527
 9281SOL    HW233210   1.632   8.283   1.456 -0.5395  0.5448 -0.0984
 9282SOL     OW33211   8.270   1.161   3.425  0.2979 -0.0371  0.0759
 9282SOL    HW133212   8.314   1.209   3.501  0.4581 -0.9968  0.6055
 9282SOL    HW233213   8.336   1.098   3.384  0.2818  0.6558 -1.0189
 9283SOL     OW33214   3.406   5.003   1.052 -0.9967  0.5359  0.3340
 9283SOL    HW133215   3.334   5.031   0.989  0.0688  0.8935 -0.7260
 9283SOL    HW233216   3.366   4.984   1.142 -2.2724  1.6611  0.0075
 9284SOL     OW33217   7.493   1.940   1.132 -0.0218  0.1748 -0.0115
 9284SOL    HW133218   7.536   2.028   1.111 -0.2807 -0.1236 -1.8660
 9284SOL    HW233219   7.529   1.870   1.071 -0.3562 -0.8697  0.9698
 9285SOL     OW33220   9.690   9.207   0.863  0.5397  0.1693 -0.1366
 9285SOL    HW133221   9.696   9.213   0.764  1.6622 -2.7062 -0.2839
 9285SOL    HW233222   9.596   9.187   0.891  0.1913  1.1465 -0.5777
 9288SOL     OW33223   0.382   9.426   1.044 -0.6483 -0.3309 -0.1171
 9288SOL    HW133224   0.423   9.493   1.106 -2.9600  1.2998 -0.2725
 9288SOL    HW233225   0.378   9.464   0.952 -1.5031 -0.8764 -0.3137
 9289SOL     OW33226   9.085   9.171   0.228  0.2554 -0.2835 -0.3232
 9289SOL    HW133227   9.010   9.119   0.188 -1.4317  1.8545 -0.0340
 9289SOL    HW233228   9.123   9.233   0.160 -0.6363  1.2038  0.4956
 9290SOL     OW33229   0.704   0.878   3.263 -0.7789  0.0350  0.8439
 9290SOL    HW133230   0.707   0.941   3.341  0.2411  2.7391 -1.2649
 9290SOL    HW233231   0.795   0.837   3.250 -0.3614  1.2452 -0.1726
 9291SOL     OW33232   0.493   7.322   3.653 -1.3171  0.2523 -0.3487
 9291SOL    HW133233   0.498   7.333   3.554 -2.1076 -1.5208 -0.6048
 9291SOL    HW233234   0.455   7.231   3.675  0.0374  0.1227  1.5718
 9292SOL     OW33235   0.130   9.359   0.578 -0.0488 -1.1297  0.6222
 9292SOL    HW133236   0.149   9.296   0.653 -1.2731 -1.7016  0.4690
 9292SOL    HW233237   0.065   9.316   0.514  0.2468 -0.2893 -0.2601
 9293SOL     OW33238   0.592   6.261   0.212  0.5437  0.0246 -0.5083
 9293SOL    HW133239   0.678   6.308   0.232  0.9634 -0.3305 -1.4569
 9293SOL    HW233240   0.563   6.284   0.119 -0.6988  0.6221  0.0172
 9294SOL     OW33241   4.584   1.766   1.189  0.7458 -0.1945  0.2660
 9294SOL    HW133242   4.521   1.689   1.176  1.1330 -0.2687 -1.3923
 9294SOL    HW233243   4.676   1.738   1.161  0.9327  0.7937 -0.1115
 9295SOL     OW33244   2.577   7.806   3.073  0.3333 -0.3551 -0.6917
 9295SOL    HW133245   2.622   7.868   3.009 -0.5195  1.3069  0.3022
 9295SOL    HW233246   2.573   7.714   3.033  0.0330  0.5980 -2.9282
 9296SOL     OW33247   3.109   9.037   3.719  0.3070 -0.0185  0.1659
 9296SOL    HW133248   3.193   8.992   3.691  0.1797  0.1636 -0.5207
 9296SOL    HW233249   3.030   8.982   3.690  0.2069 -0.6418  1.6039
 9297SOL     OW33250   0.993   2.576   0.019  0.1948 -0.3827  0.6142
 9297SOL    HW133251   1.088   2.549   0.011  0.3400  0.6701 -1.7692
 9297SOL    HW233252   0.986   2.676   0.016 -1.0419 -0.4703  0.0706
 9298SOL     OW33253   0.099   6.451   4.356  0.2147 -0.1012  0.6609
 9298SOL    HW133254   0.028   6.518   4.334  0.0579  0.0203  1.5394
 9298SOL    HW233255   0.056   6.364   4.379  0.4281 -0.5994 -0.7634
 9299SOL     OW33256   1.937   1.178   2.483 -0.1266  0.1326  0.3484
 9299SOL    HW133257   1.984   1.090   2.475 -1.8183 -0.8013  0.5019
 9299SOL    HW233258   1.917   1.213   2.391 -0.8458 -0.4114  0.2919
 9300SOL     OW33259   7.912   9.014   1.330 -0.1494  0.2532 -0.1291
 9300SOL    HW133260   7.982   8.944   1.312  1.5697  1.1945  2.4819
 9300SOL    HW233261   7.927   9.052   1.422 -1.9800  2.9893 -0.9127
 9301SOL     OW33262   9.157   4.766   4.426  0.1974 -0.4962  0.4753
 9301SOL    HW133263   9.072   4.814   4.405 -0.1617 -1.2418  0.2257
 9301SOL    HW233264   9.206   4.816   4.498  0.8507  1.4206 -1.2370
 9302SOL     OW33265   3.893   1.624   0.063  0.2046  0.4995 -0.1844
 9302SOL    HW133266   3.857   1.531   0.052  0.8681  0.2772 -0.5003
 9302SOL    HW233267   3.846   1.685  -0.000  1.1007  0.0096 -1.3408
 9303SOL     OW33268   1.687   3.508   1.382  0.9776  0.8910  0.0997
 9303SOL    HW133269   1.738   3.511   1.296  1.0382  0.7020  0.1293
 9303SOL    HW233270   1.749   3.491   1.458  0.6422 -1.2679 -0.0740
 9304SOL     OW33271   2.037   1.963   1.514 -0.2850 -0.2348  0.5038
 9304SOL    HW133272   2.085   1.935   1.597  1.1080  0.9530  0.1081
 9304SOL    HW233273   1.960   2.022   1.538  0.8148  1.0578  0.8852
 9306SOL     OW33274   1.711   9.085   3.891  0.1710 -0.1196  0.0843
 9306SOL    HW133275   1.776   9.014   3.919  0.8119  0.5284  0.2568
 9306SOL    HW233276   1.705   9.087   3.791  1.2408  0.5554  0.0361
 9307SOL     OW33277   2.217   4.441   2.973 -0.5877  0.3961 -0.0910
 9307SOL    HW133278   2.316   4.426   2.975 -0.5934  0.4650  1.1547
 9307SOL    HW233279   2.183   4.448   3.067 -1.6468  1.2437 -0.5379
 9308SOL     OW33280   8.148   4.158   2.242  0.0874 -0.2138 -0.3109
 9308SOL    HW133281   8.160   4.248   2.284 -2.4115 -0.7551  1.7189
 9308SOL    HW233282   8.072   4.161   2.178 -0.8075 -1.1342  0.6797
 9309SOL     OW33283   8.742   4.187   3.692  0.3557 -0.0719  0.2017
 9309SOL    HW133284   8.667   4.224   3.636  2.8669  4.7271 -0.2323
 9309SOL    HW233285   8.805   4.136   3.634 -0.1149 -0.1013 -0.2897
 9310SOL     OW33286   5.612   9.163   3.693 -0.1715  0.4748  0.4727
 9310SOL    HW133287   5.705   9.201   3.697 -0.8893  2.3131  0.0717
 9310SOL    HW233288   5.578   9.169   3.599 -0.9587  0.4595  0.7550
 9311SOL     OW33289   4.561   6.841   3.720  0.2267 -0.0783  0.4294
 9311SOL    HW133290   4.473   6.881   3.746  0.9289  0.7257  1.6039
 9311SOL    HW233291   4.613   6.818   3.803 -0.2102 -3.5804 -0.1859
 9312SOL     OW33292   2.532   6.274   1.347  0.3205 -0.1227  0.3654
 9312SOL    HW133293   2.433   6.285   1.332  0.6968  0.2607 -2.1380
 9312SOL    HW233294   2.560   6.184   1.313  1.1785  0.6346 -0.9699
 9313SOL     OW33295   9.401   0.586   4.188 -0.4547  0.2137  0.0894
 9313SOL    HW133296   9.373   0.596   4.284 -0.0750  0.6560  0.1558
 9313SOL    HW233297   9.383   0.492   4.158 -0.1822 -0.0481  0.7243
 9314SOL     OW33298   8.563   0.198   1.426 -0.2249  0.4450 -0.6027
 9314SOL    HW133299   8.505   0.125   1.389 -0.5031  0.3687 -0.0138
 9314SOL    HW233300   8.522   0.235   1.509  0.7481  0.1517  0.0214
 9315SOL     OW33301   5.991   8.179   2.508  0.0801  0.1294 -0.0528
 9315SOL    HW133302   5.959   8.139   2.422 -0.3597  0.4892 -0.0590
 9315SOL    HW233303   5.990   8.279   2.501  1.3167  0.1552 -0.0900
 9316SOL     OW33304   3.265   1.202   3.405  0.3284 -0.2378  0.3605
 9316SOL    HW133305   3.240   1.148   3.485 -0.6888 -0.1990  0.0754
 9316SOL    HW233306   3.227   1.294   3.414 -0.8803 -0.6106 -0.7447
 9317SOL     OW33307   4.229   8.894   2.548  0.0357 -0.3876  0.0753
 9317SOL    HW133308   4.168   8.820   2.574 -1.8426  1.0301 -0.1909
 9317SOL    HW233309   4.274   8.872   2.461  1.1007 -2.1115  1.0453
 9318SOL     OW33310   4.230   6.900   2.268  0.0310 -0.2077 -0.2614
 9318SOL    HW133311   4.254   6.826   2.205 -2.2666 -0.0364 -1.4053
 9318SOL    HW233312   4.218   6.862   2.360 -3.4045 -1.8040 -1.2372
 9319SOL     OW33313   3.068   1.626   1.830 -0.1426 -0.4641 -0.1809
 9319SOL    HW133314   3.020   1.612   1.744  0.0086  0.8127 -0.4823
 9319SOL    HW233315   3.163   1.654   1.811 -0.4270  0.9270  0.3770
 9320SOL     OW33316   2.621   2.957   1.805 -0.0244  0.3877  0.6546
 9320SOL    HW133317   2.708   2.980   1.761 -0.0934 -0.9011 -0.1474
 9320SOL    HW233318   2.563   3.039   1.808 -0.7534  0.0835 -3.3011
 9322SOL     OW33319   2.922   4.951   0.961 -0.5294  0.4048 -0.0878
 9322SOL    HW133320   2.884   5.037   0.993 -1.8402 -0.5064  0.8675
 9322SOL    HW233321   2.901   4.878   1.027 -0.9497 -0.9824 -1.7056
 9323SOL     OW33322   7.822   6.021   4.439 -0.4279 -0.3535 -0.4747
 9323SOL    HW133323   7.868   6.109   4.455 -2.4750  0.3677  1.7590
 9323SOL    HW233324   7.781   6.021   4.348  0.9804  0.3364 -1.1364
 9324SOL     OW33325   1.119   4.876   1.917  0.0223  0.1517  0.6269
 9324SOL    HW133326   1.041   4.901   1.974  0.3238  1.7789  0.3602
 9324SOL    HW233327   1.197   4.937   1.938  0.5173 -0.0323 -0.6325
 9325SOL     OW33328   4.081   5.242   1.596 -0.1728 -0.4618 -0.5278
 9325SOL    HW133329   4.078   5.238   1.696  1.0806  0.4615 -0.4286
 9325SOL    HW233330   4.034   5.163   1.557 -2.7194  0.3719  0.7569
 9326SOL     OW33331   9.929   6.197   4.318 -0.4076 -0.0412  0.6334
 9326SOL    HW133332   9.883   6.276   4.358 -0.8666 -0.4431  0.8921
 9326SOL    HW233333   9.867   6.118   4.316 -0.4719  0.0301 -1.0707
 9327SOL     OW33334   6.737   0.328   0.781  0.1222 -0.0760  0.1407
 9327SOL    HW133335   6.804   0.379   0.727  1.9694 -0.9515  1.5594
 9327SOL    HW233336   6.717   0.241   0.735 -1.5935  1.0425 -1.3024
 9329SOL     OW33337   4.661   0.038   2.511 -0.1023 -0.2999 -0.2566
 9329SOL    HW133338   4.671   0.034   2.611  1.9958 -0.6286 -0.4633
 9329SOL    HW233339   4.745   0.005   2.468 -0.8842  0.1349 -2.1431
 9330SOL     OW33340   1.913   3.475   4.401  0.5674  0.2152 -0.6085
 9330SOL    HW133341   1.995   3.513   4.359  0.9777 -0.5783 -0.5316
 9330SOL    HW233342   1.939   3.413   4.475 -0.1303  1.3642  0.6477
 9331SOL     OW33343   8.973   1.279   2.112  0.5232 -0.3750  0.5451
 9331SOL    HW133344   8.901   1.261   2.045 -0.4229 -0.5087  1.6077
 9331SOL    HW233345   8.966   1.215   2.188  1.0497  0.3531  1.2154
 9333SOL     OW33346   0.836   7.245   2.970  0.4915 -0.2335  0.1036
 9333SOL    HW133347   0.919   7.208   2.927  1.2295 -0.1266  1.4164
 9333SOL    HW233348   0.858   7.278   3.062 -1.1167 -0.6877  0.6636
 9334SOL     OW33349   3.003   1.863   0.052  0.2326  0.0701  0.1015
 9334SOL    HW133350   2.936   1.938   0.049 -0.4551 -0.5281  0.4507
 9334SOL    HW233351   2.980   1.796  -0.018  1.0804  0.3761 -0.4715
 9335SOL     OW33352   3.649   5.922   1.010 -0.1096  0.0774 -0.3081
 9335SOL    HW133353   3.729   5.862   1.016 -1.1765 -1.1698  1.6840
 9335SOL    HW233354   3.588   5.889   0.938  0.2751 -0.0402 -0.5819
 9336SOL     OW33355   9.429   7.311   2.111 -0.2269 -0.2443 -0.2728
 9336SOL    HW133356   9.393   7.399   2.081  0.9560  0.1055 -0.6799
 9336SOL    HW233357   9.421   7.304   2.211  0.9378  0.9050 -0.0881
 9337SOL     OW33358   0.201   1.388   0.911 -0.4669 -0.6777 -0.8903
 9337SOL    HW133359   0.181   1.476   0.955  0.3951 -1.3668  0.9443
 9337SOL    HW233360   0.286   1.394   0.859  0.1110 -0.6683  0.0347
 9338SOL     OW33361   7.705   7.401   2.525  0.1603  0.3940  0.4639
 9338SOL    HW133362   7.798   7.389   2.559  0.5071 -0.0948 -0.6340
 9338SOL    HW233363   7.651   7.451   2.593  0.9082 -0.3018  1.5922
 9339SOL     OW33364   4.268   1.683   2.332 -0.0694 -0.1038 -0.3483
 9339SOL    HW133365   4.311   1.724   2.252  1.0799 -1.1678 -0.2901
 9339SOL    HW233366   4.301   1.589   2.344 -1.9437 -0.7371  0.0743
 9342SOL     OW33367   1.471   5.134   0.966 -0.1497  0.3259 -0.0557
 9342SOL    HW133368   1.488   5.211   0.905  0.7683 -1.1577 -1.7341
 9342SOL    HW233369   1.376   5.137   0.998  0.3916  3.1915  1.4754
 9343SOL     OW33370   1.056   7.714   0.765 -0.2594  0.1528 -0.1104
 9343SOL    HW133371   1.012   7.628   0.739 -0.7274  0.0929  0.8435
 9343SOL    HW233372   1.111   7.700   0.847 -1.5512  1.1017  0.9393
 9344SOL     OW33373   2.501   0.874   1.610  0.3332 -0.2060 -0.1526
 9344SOL    HW133374   2.553   0.822   1.542 -1.1988 -0.0019 -1.5023
 9344SOL    HW233375   2.543   0.964   1.622  0.2702 -0.0303 -1.2570
 9346SOL     OW33376   4.468   2.667   0.332 -0.0699  0.3012  0.4683
 9346SOL    HW133377   4.449   2.715   0.418 -1.7384 -1.7944  1.3182
 9346SOL    HW233378   4.403   2.698   0.262 -0.3766  0.1330  0.6793
 9347SOL     OW33379   2.192   5.679   4.221 -0.5153 -0.9061 -0.2352
 9347SOL    HW133380   2.270   5.729   4.183  0.2145 -1.1828  0.8978
 9347SOL    HW233381   2.124   5.744   4.255 -0.9272 -0.6594 -1.4951
 9348SOL     OW33382   9.776   6.990   0.141 -0.1261  0.6183  0.7285
 9348SOL    HW133383   9.817   6.898   0.141 -1.2993  0.0718  2.6060
 9348SOL    HW233384   9.848   7.059   0.138  0.7498 -0.3005 -3.7370
 9350SOL     OW33385   3.642   3.724   1.738 -0.1940  0.4395 -0.2076
 9350SOL    HW133386   3.708   3.773   1.681 -0.4196  0.3279 -0.5617
 9350SOL    HW233387   3.626   3.776   1.822 -0.8471  1.2505 -0.8242
 9351SOL     OW33388   8.250   2.147   4.194 -0.2214 -0.4178 -0.1051
 9351SOL    HW133389   8.190   2.074   4.228 -0.1405  0.2959  1.5642
 9351SOL    HW233390   8.263   2.135   4.095 -0.7307 -2.2885  0.0334
 9352SOL     OW33391   1.257   7.942   1.643  0.3159  0.0702  0.1367
 9352SOL    HW133392   1.271   7.965   1.546  2.9961 -0.3806  0.3701
 9352SOL    HW233393   1.265   8.026   1.697 -0.7842  0.2620  0.0022
 9353SOL     OW33394   9.042   3.527   1.232 -0.4081 -0.5146 -0.0536
 9353SOL    HW133395   9.080   3.552   1.322 -1.9410  0.9757  0.2066
 9353SOL    HW233396   8.944   3.512   1.241 -0.5861 -0.2270 -1.5084
 9354SOL     OW33397   8.389   7.886   2.106  0.3724 -0.8023  0.0144
 9354SOL    HW133398   8.311   7.825   2.118 -0.9384  0.6075 -1.1408
 9354SOL    HW233399   8.380   7.936   2.020  1.7794  0.4947  0.5856
 9355SOL     OW33400   2.046   4.627   0.510  0.8119 -0.3393  0.3470
 9355SOL    HW133401   2.112   4.616   0.436  1.1152  1.6233  0.3064
 9355SOL    HW233402   2.083   4.587   0.594  1.2352 -0.9423 -0.1219
 9356SOL     OW33403   9.268   3.609   0.509 -0.3323 -0.2426  0.2781
 9356SOL    HW133404   9.265   3.698   0.464 -0.3504 -0.0407  0.6710
 9356SOL    HW233405   9.324   3.546   0.456 -2.0811 -0.6392 -1.1259
 9357SOL     OW33406   9.824   4.178   0.970  0.1444 -0.2057 -0.5076
 9357SOL    HW133407   9.732   4.138   0.978  0.0771  0.2357  1.0395
 9357SOL    HW233408   9.842   4.200   0.874 -1.4426 -0.1352 -0.8131
 9359SOL     OW33409   4.395   4.784   1.946  0.3249 -0.4640 -0.0724
 9359SOL    HW133410   4.438   4.732   1.873 -0.8508  0.6162 -1.5562
 9359SOL    HW233411   4.307   4.819   1.915 -0.2607 -0.0866  1.9065
 9360SOL     OW33412   5.373   9.965   1.397  0.3772  0.1332 -0.6354
 9360SOL    HW133413   5.296  10.021   1.427  1.0507 -0.0628  1.5828
 9360SOL    HW233414   5.363   9.872   1.433  2.0820  0.3541  0.4772
 9361SOL     OW33415   7.725   0.800   1.737 -0.0717  0.0015 -0.2073
 9361SOL    HW133416   7.761   0.878   1.684 -1.3441  0.1629 -0.8444
 9361SOL    HW233417   7.647   0.830   1.792  0.3845 -0.4882  0.7269
 9362SOL     OW33418   9.375   6.649   0.173  0.3178 -0.3332 -0.5066
 9362SOL    HW133419   9.304   6.719   0.186  1.5830  0.6841  1.1261
 9362SOL    HW233420   9.361   6.576   0.240 -0.6726 -1.3869 -1.8462
 9363SOL     OW33421   0.908   4.497   2.438 -0.0714  0.1223 -0.3803
 9363SOL    HW133422   0.849   4.506   2.358 -0.6584  1.1167  0.1578
 9363SOL    HW233423   0.966   4.417   2.427 -0.2362  0.1754 -1.7457
 9364SOL     OW33424   3.419   1.739   2.927  0.3398  0.1931 -0.6219
 9364SOL    HW133425   3.376   1.823   2.895  2.7001  1.2624 -1.0359
 9364SOL    HW233426   3.443   1.682   2.848 -0.6773 -0.6115 -0.3684
 9365SOL     OW33427   0.226   5.466   2.181  0.1323 -0.8300 -0.1073
 9365SOL    HW133428   0.144   5.516   2.155 -0.1711 -0.0044  2.3720
 9365SOL    HW233429   0.200   5.376   2.216  0.1642 -0.0650  1.9276
 9367SOL     OW33430   9.553   2.006   2.690 -0.2281 -0.3298 -0.3889
 9367SOL    HW133431   9.618   1.981   2.617 -0.4077 -1.5260 -0.1481
 9367SOL    HW233432   9.603   2.046   2.766  0.0698  0.0637 -0.7885
 9368SOL     OW33433   7.665   7.453   3.517 -0.5755  0.6983 -0.1825
 9368SOL    HW133434   7.696   7.478   3.426  0.6342  0.5396  0.1783
 9368SOL    HW233435   7.572   7.417   3.512  0.0995 -0.9047 -1.5930
 9369SOL     OW33436   0.000   8.009   3.410  0.2186 -0.7104 -0.1811
 9369SOL    HW133437   0.084   7.981   3.363  1.3342 -0.6273  1.7101
 9369SOL    HW233438  -0.056   7.928   3.427 -0.2281 -0.7321 -1.6998
 9370SOL     OW33439   0.101   5.740   0.565 -0.5017  0.3113 -0.4529
 9370SOL    HW133440   0.114   5.832   0.602 -2.6944  0.8827 -1.0576
 9370SOL    HW233441   0.078   5.677   0.639  0.5004  0.3318 -0.1114
 9373SOL     OW33442   3.075   2.253   0.967  0.5493 -0.0282  0.0470
 9373SOL    HW133443   3.074   2.165   1.016  0.5631 -0.2599 -0.3676
 9373SOL    HW233444   3.011   2.316   1.011  0.7380 -0.1539  0.5107
 9374SOL     OW33445   0.299   6.535   0.700 -0.2379 -0.6621  0.4999
 9374SOL    HW133446   0.392   6.540   0.738  1.4133  1.4138 -3.4875
 9374SOL    HW233447   0.301   6.484   0.614 -2.8323 -0.7323  0.4438
 9376SOL     OW33448   3.276   3.725   3.988  0.0957  0.0310  0.1661
 9376SOL    HW133449   3.346   3.791   4.013  0.4627 -0.6242  0.8953
 9376SOL    HW233450   3.318   3.635   3.975 -0.8055 -0.7047  2.1189
 9377SOL     OW33451   4.074   0.166   2.160  0.0568 -0.0295  0.0934
 9377SOL    HW133452   4.020   0.248   2.139  0.7892  0.5195  0.3219
 9377SOL    HW233453   4.129   0.141   2.081  0.7200  0.4021  0.4068
 9378SOL     OW33454   0.222   7.010   0.828 -0.2407 -0.1716  0.3628
 9378SOL    HW133455   0.219   6.943   0.902  0.5806  1.0186  1.4693
 9378SOL    HW233456   0.144   7.072   0.836 -1.1405 -1.1055 -0.8084
 9379SOL     OW33457   1.555   1.973   2.167  0.3547  0.7443 -0.6737
 9379SOL    HW133458   1.458   1.999   2.164 -0.1232 -0.9600 -0.7210
 9379SOL    HW233459   1.576   1.935   2.257  0.6897  0.0330 -1.0532
 9380SOL     OW33460   1.124   9.598   3.826  0.4517 -0.2132 -0.6771
 9380SOL    HW133461   1.199   9.554   3.876  0.4046  0.4368 -0.0318
 9380SOL    HW233462   1.063   9.528   3.790  0.9063 -0.7180 -0.4802
 9381SOL     OW33463   2.759   1.529   4.234 -0.1605 -0.2138 -0.1661
 9381SOL    HW133464   2.787   1.620   4.205  0.5372 -0.6914 -0.9972
 9381SOL    HW233465   2.669   1.535   4.278  0.3821  1.0285  0.8003
 9383SOL     OW33466   2.896   1.685   0.703 -0.2857  0.0018  0.3970
 9383SOL    HW133467   2.947   1.752   0.758  0.3991 -0.5410  0.4344
 9383SOL    HW233468   2.948   1.666   0.620  0.3205 -1.7003  1.1483
 9384SOL     OW33469   0.075   6.943   3.483 -0.1484 -0.1678  0.0494
 9384SOL    HW133470   0.052   6.854   3.445 -0.2893  0.3375 -1.0657
 9384SOL    HW233471  -0.005   7.004   3.478  1.0689  1.2759 -2.9120
 9385SOL     OW33472   9.051   7.679   2.555 -0.4458 -0.3877  0.1119
 9385SOL    HW133473   8.998   7.689   2.471  2.1317 -0.3204 -1.5640
 9385SOL    HW233474   9.084   7.768   2.586 -1.9588 -0.3222  1.6150
 9386SOL     OW33475   4.405   0.019   1.266 -0.2191  0.2886  0.1122
 9386SOL    HW133476   4.469   0.055   1.334 -0.2231 -0.8365  0.7234
 9386SOL    HW233477   4.330  -0.028   1.314 -1.2266  1.1458 -0.6074
 9387SOL     OW33478   0.165   6.336   0.888  0.3002  0.0390 -0.2054
 9387SOL    HW133479   0.070   6.337   0.858 -0.2363  1.9410  1.4768
 9387SOL    HW233480   0.219   6.400   0.832  0.3864 -0.3194 -0.5306
 9388SOL     OW33481   8.028   9.359   4.379 -0.2908  0.1341 -0.2217
 9388SOL    HW133482   8.020   9.291   4.307  0.3571  0.3103 -0.4690
 9388SOL    HW233483   7.954   9.426   4.370 -0.5964 -0.2180 -0.3190
 9389SOL     OW33484   9.660   8.597   4.230 -0.5961  0.1750  0.5631
 9389SOL    HW133485   9.672   8.507   4.188 -0.5758 -0.0730  1.1056
 9389SOL    HW233486   9.564   8.625   4.219 -0.7640 -0.2140  0.9918
 9390SOL     OW33487   1.876   6.904   1.806  0.2773 -0.0390  0.0441
 9390SOL    HW133488   1.968   6.871   1.784 -0.2731 -2.3048  0.9565
 9390SOL    HW233489   1.882   6.983   1.868  1.6153  0.4189 -0.6670
 9391SOL     OW33490   1.734   6.196   2.682 -0.2799 -0.0875 -0.0154
 9391SOL    HW133491   1.709   6.287   2.716 -1.6790 -0.1847 -0.7315
 9391SOL    HW233492   1.706   6.127   2.749  1.8521  0.0683  1.0711
 9392SOL     OW33493   8.495   9.214   1.498 -0.5387 -0.1030 -0.9829
 9392SOL    HW133494   8.524   9.123   1.469  1.8474  0.2290  0.2376
 9392SOL    HW233495   8.504   9.278   1.421  1.5368 -0.1182 -0.7781
 9393SOL     OW33496   2.356   3.955   0.469 -0.1882  0.1486 -0.4291
 9393SOL    HW133497   2.374   4.053   0.465  0.2743  0.0379 -1.1416
 9393SOL    HW233498   2.364   3.923   0.564 -1.2634  0.9666 -0.0504
 9394SOL     OW33499   2.623   5.557   3.284  0.5768  0.1981  0.6638
 9394SOL    HW133500   2.698   5.616   3.314  0.5052  0.3683  0.5140
 9394SOL    HW233501   2.543   5.573   3.340  0.8979 -0.5640  1.3374
 9395SOL     OW33502   1.092   7.021   0.380 -0.2999 -0.2499 -0.0526
 9395SOL    HW133503   1.069   6.951   0.312 -2.9163 -1.2823  1.8003
 9395SOL    HW233504   1.026   7.096   0.374  0.9477  0.8305 -0.3043
 9397SOL     OW33505   1.355   8.311   0.469  0.0289 -0.1944 -1.0612
 9397SOL    HW133506   1.348   8.248   0.546 -0.6818  0.5671 -0.5056
 9397SOL    HW233507   1.329   8.403   0.498 -1.6152 -0.1698 -2.5414
 9398SOL     OW33508   4.556   7.711   2.135 -0.4702  0.1660 -0.3974
 9398SOL    HW133509   4.602   7.759   2.060 -1.5801 -0.8486 -1.7703
 9398SOL    HW233510   4.576   7.756   2.221  0.8338  1.3718 -1.3087
 9399SOL     OW33511   9.729   7.364   3.822 -0.4143 -0.2050  0.3122
 9399SOL    HW133512   9.764   7.445   3.868 -0.5305  0.3843 -0.6075
 9399SOL    HW233513   9.765   7.282   3.866  0.1385  0.3581  0.9175
 9400SOL     OW33514   2.400   8.475   1.822 -0.6228  0.2575  0.5360
 9400SOL    HW133515   2.472   8.516   1.876 -1.0043  0.8145  0.6234
 9400SOL    HW233516   2.341   8.420   1.881  0.6103 -1.4413  0.2210
 9401SOL     OW33517   0.757   4.711   3.476 -0.4028  0.4495 -0.5356
 9401SOL    HW133518   0.753   4.680   3.381 -0.5913  0.9530 -0.6906
 9401SOL    HW233519   0.727   4.636   3.536 -0.9668  0.3632 -0.9197
 9402SOL     OW33520   4.218   8.337   2.682  0.0342  0.2398 -0.2309
 9402SOL    HW133521   4.210   8.436   2.673  0.4875  0.2656 -0.3364
 9402SOL    HW233522   4.302   8.306   2.639 -0.9656 -0.4091 -1.7808
 9403SOL     OW33523   8.728   7.876   0.634 -0.8356 -0.7969  0.5969
 9403SOL    HW133524   8.816   7.872   0.681 -0.6801 -0.0982  0.3783
 9403SOL    HW233525   8.676   7.792   0.652 -0.0220 -1.3282  0.5220
 9405SOL     OW33526   3.472   1.674   0.083  0.5406 -0.1911 -0.2294
 9405SOL    HW133527   3.408   1.601   0.107 -1.5658  0.7509 -2.7331
 9405SOL    HW233528   3.521   1.650  -0.001  1.4690  0.2931  0.1697
 9406SOL     OW33529   8.658   8.001   1.436 -0.4620  0.1116  0.7260
 9406SOL    HW133530   8.623   7.914   1.402 -0.5573  0.2478  0.4796
 9406SOL    HW233531   8.716   7.984   1.515  0.4943 -0.2656 -0.0554
 9407SOL     OW33532   3.157   8.596   3.534 -0.1914 -0.2135 -0.2940
 9407SOL    HW133533   3.206   8.510   3.531  0.2530  0.0596 -0.8950
 9407SOL    HW233534   3.123   8.612   3.627 -0.6210 -1.2180 -0.2755
 9408SOL     OW33535   0.372   1.097   1.058  0.8000  0.0751  0.3968
 9408SOL    HW133536   0.471   1.090   1.052  0.9488  2.4858 -0.2894
 9408SOL    HW233537   0.347   1.148   1.140  0.1584 -0.0963  0.3113
 9410SOL     OW33538   7.701   2.088   2.049  0.1811 -0.0835  0.5980
 9410SOL    HW133539   7.772   2.033   2.094 -0.4670 -2.8332 -1.5895
 9410SOL    HW233540   7.628   2.108   2.114  1.4654  0.1122  2.0204
 9412SOL     OW33541   5.905   8.807   1.384 -0.1231 -0.1902  0.0435
 9412SOL    HW133542   5.865   8.756   1.307  1.1550  0.2141 -0.9187
 9412SOL    HW233543   5.832   8.846   1.440 -1.0863 -1.0610 -0.5827
 9415SOL     OW33544   9.459   0.368   4.388  0.3048 -0.5781  0.7198
 9415SOL    HW133545   9.479   0.354   4.291  2.2633 -0.9156  1.1451
 9415SOL    HW233546   9.362   0.353   4.404 -0.4144  1.4003 -1.5207
 9416SOL     OW33547   3.637   1.468   1.902  0.0841 -0.4592 -0.3037
 9416SOL    HW133548   3.672   1.561   1.893 -2.2506  0.7031  2.0979
 9416SOL    HW233549   3.559   1.456   1.840 -0.5763 -0.3303  0.5037
 9417SOL     OW33550   1.084   5.241   4.334 -0.1615  0.6929  1.3326
 9417SOL    HW133551   1.060   5.328   4.376  0.6932  1.6171 -0.0690
 9417SOL    HW233552   1.015   5.216   4.267  0.4298  1.1073  0.5620
 9418SOL     OW33553   1.672   2.344   1.860 -0.4170 -0.0934 -0.1085
 9418SOL    HW133554   1.715   2.371   1.774  1.4650 -0.4781  0.6792
 9418SOL    HW233555   1.681   2.419   1.926 -2.2724  0.3856 -0.3771
 9419SOL     OW33556   4.167   7.986   1.282 -0.5253 -0.4107 -0.0537
 9419SOL    HW133557   4.195   7.916   1.216 -1.7246 -1.0202  0.0732
 9419SOL    HW233558   4.121   7.943   1.359 -1.4603  0.5336 -0.0717
 9420SOL     OW33559   8.940   2.937   0.228 -0.4323  0.3287 -0.1978
 9420SOL    HW133560   8.941   2.975   0.321 -1.0506  0.5582 -0.2870
 9420SOL    HW233561   9.034   2.934   0.194 -0.1727  0.0327  0.5190
 9421SOL     OW33562   7.016   8.612   3.193  0.3290 -0.1904 -0.1265
 9421SOL    HW133563   7.081   8.684   3.214 -0.4955  0.4934  0.1396
 9421SOL    HW233564   7.064   8.528   3.171  1.2829  0.1638  0.6071
 9422SOL     OW33565   4.595   8.422   3.960 -0.7873 -0.4211 -0.3277
 9422SOL    HW133566   4.586   8.396   3.864  3.2401  0.8675 -1.1534
 9422SOL    HW233567   4.609   8.521   3.967  0.5843 -0.7015  1.4100
 9423SOL     OW33568   0.413   7.917   0.660 -0.1532  0.4689 -0.5441
 9423SOL    HW133569   0.470   7.852   0.709 -0.2351  0.5433 -0.3473
 9423SOL    HW233570   0.467   7.964   0.590  0.0547  0.6177 -0.2847
 9425SOL     OW33571   5.180   2.796   1.497  0.5673  0.7892  0.4733
 9425SOL    HW133572   5.195   2.832   1.405 -0.5763  0.9755  0.3506
 9425SOL    HW233573   5.154   2.871   1.558  1.1282  0.6359  0.9004
 9426SOL     OW33574   2.430   4.367   1.366  0.1220  0.9578 -0.0623
 9426SOL    HW133575   2.391   4.416   1.288 -0.3409  0.2253 -0.2899
 9426SOL    HW233576   2.376   4.285   1.385  0.3812  0.9941  0.8690
 9427SOL     OW33577   7.090   6.725   2.604  0.1537  0.1013  0.0082
 9427SOL    HW133578   7.167   6.767   2.556  0.5970  0.1985  0.8021
 9427SOL    HW233579   7.048   6.655   2.546  1.5589 -0.7635  0.0237
 9428SOL     OW33580   3.444   9.508   0.835 -0.0037 -0.0930 -0.0973
 9428SOL    HW133581   3.517   9.532   0.899  0.2704 -0.8834 -0.1063
 9428SOL    HW233582   3.356   9.538   0.871 -0.0381 -1.9302  1.4102
 9429SOL     OW33583   5.519   8.153   2.329  0.4121  0.3756 -0.3862
 9429SOL    HW133584   5.550   8.159   2.424  0.9611  2.0402 -0.6513
 9429SOL    HW233585   5.559   8.072   2.286  0.7608  0.0273  0.5893
 9431SOL     OW33586   8.729   2.016   2.108  0.5871  0.3227 -0.2788
 9431SOL    HW133587   8.785   1.940   2.074 -2.8854 -2.0591 -0.9899
 9431SOL    HW233588   8.718   2.084   2.036  1.5369  0.2227 -0.5278
 9432SOL     OW33589   9.877   5.565   3.614 -0.7337 -0.6298  0.8288
 9432SOL    HW133590   9.975   5.577   3.605 -0.9494  0.2912 -0.4580
 9432SOL    HW233591   9.850   5.582   3.709  0.3737 -1.1629  1.2444
 9434SOL     OW33592   3.523   3.132   3.316 -0.1941 -0.2417  0.1215
 9434SOL    HW133593   3.523   3.134   3.216 -2.4428 -0.3225  0.0985
 9434SOL    HW233594   3.539   3.225   3.351  1.4312 -0.3474 -0.2773
 9435SOL     OW33595   2.837   7.889   1.546 -0.0234  0.3472  0.4697
 9435SOL    HW133596   2.744   7.853   1.554 -0.1224  0.7493  1.2126
 9435SOL    HW233597   2.856   7.948   1.624  1.4288 -1.0431  1.2003
 9436SOL     OW33598   0.371   5.549   3.772 -0.1815 -0.0843  0.5899
 9436SOL    HW133599   0.353   5.451   3.761 -0.6213 -0.2968  2.9728
 9436SOL    HW233600   0.468   5.564   3.792 -0.1446 -0.0332  0.3795
 9438SOL     OW33601   8.867   4.721   4.072  0.9650 -0.1296  0.0106
 9438SOL    HW133602   8.884   4.803   4.127 -0.4063 -0.6589  1.2634
 9438SOL    HW233603   8.812   4.745   3.993 -1.3518 -0.1736  1.5588
 9439SOL     OW33604   8.923   8.229   0.808  0.1138  0.4543  0.3561
 9439SOL    HW133605   8.972   8.256   0.725 -0.0749 -1.1214 -0.2808
 9439SOL    HW233606   8.952   8.288   0.884  1.0544  1.2366 -0.5873
 9441SOL     OW33607   9.760   5.121   3.268  0.4083 -0.3421  0.0027
 9441SOL    HW133608   9.797   5.038   3.310  3.5552  0.9469 -0.0310
 9441SOL    HW233609   9.757   5.194   3.336  0.4433  0.2941 -0.6739
 9445SOL     OW33610   9.085   1.028   2.084  0.0077 -0.0536  0.3892
 9445SOL    HW133611   9.062   0.990   2.174 -4.2647 -1.4536 -1.1809
 9445SOL    HW233612   9.057   1.124   2.080  0.1114 -0.0179  0.5006
 9446SOL     OW33613   2.005   8.421   2.724  0.9649 -0.3577  0.0790
 9446SOL    HW133614   2.002   8.321   2.725 -0.9831 -0.3041  0.6417
 9446SOL    HW233615   2.036   8.454   2.813  0.5626 -0.4317  0.2464
 9448SOL     OW33616   9.626   4.175   2.709 -0.1360 -0.6212  0.1326
 9448SOL    HW133617   9.715   4.209   2.740 -0.7092  1.7459 -0.6855
 9448SOL    HW233618   9.566   4.163   2.788  0.4625 -0.8729  0.5517
 9449SOL     OW33619   1.521   1.463   4.422  0.2129 -0.1212 -0.1567
 9449SOL    HW133620   1.588   1.499   4.356  0.7022  0.1148  0.4616
 9449SOL    HW233621   1.564   1.393   4.478 -0.0280  0.1042  0.3144
 9450SOL     OW33622   2.609   3.211   0.422  0.1132  0.4633  0.2695
 9450SOL    HW133623   2.601   3.124   0.375  0.6950 -0.4046  1.7332
 9450SOL    HW233624   2.644   3.280   0.359 -0.8111 -0.2341 -1.0243
 9451SOL     OW33625   1.529   5.205   4.143 -0.1017 -0.0389  0.1003
 9451SOL    HW133626   1.524   5.269   4.067  1.0442  0.2089  0.2313
 9451SOL    HW233627   1.511   5.253   4.229 -2.0957 -0.4487 -0.0581
 9452SOL     OW33628   3.382   3.681   3.441 -0.1683  0.5484 -0.0912
 9452SOL    HW133629   3.357   3.761   3.495  2.1444 -0.9008  3.3147
 9452SOL    HW233630   3.324   3.604   3.466  0.4275  0.0528 -0.1981
 9453SOL     OW33631   0.126   5.192   1.938 -0.0431 -0.0199 -0.7080
 9453SOL    HW133632   0.210   5.203   1.992  0.3537 -0.3526 -1.2512
 9453SOL    HW233633   0.122   5.263   1.868 -1.1622  1.1665  0.5172
 9455SOL     OW33634   5.671   9.569   2.633 -0.6233  0.6195  0.1934
 9455SOL    HW133635   5.740   9.497   2.635  1.1524  2.2948  1.7850
 9455SOL    HW233636   5.584   9.534   2.668 -0.2743 -1.1905 -0.7114
 9456SOL     OW33637   1.750   7.966   2.381  0.0036  0.2876 -1.1703
 9456SOL    HW133638   1.844   7.937   2.398  0.5082  0.0115 -4.2013
 9456SOL    HW233639   1.709   7.998   2.467  2.6859  0.0006  0.2696
 9457SOL     OW33640   3.503   8.715   3.809  0.3343  0.1188 -0.1242
 9457SOL    HW133641   3.506   8.719   3.709 -1.5533 -0.6980 -0.2460
 9457SOL    HW233642   3.544   8.630   3.840 -1.4994 -0.9108 -0.4066
 9458SOL     OW33643   4.764   0.449   1.988 -0.2805  0.5525  0.4935
 9458SOL    HW133644   4.851   0.405   1.963 -0.9273 -0.1548 -0.5529
 9458SOL    HW233645   4.777   0.503   2.071  1.0013 -0.0661  0.7126
 9459SOL     OW33646   6.997   0.093   2.046  0.5168  0.2132  0.6572
 9459SOL    HW133647   7.037   0.178   2.010  0.0629 -0.7547 -2.2448
 9459SOL    HW233648   7.046   0.066   2.129  2.6757  1.6481 -0.1059
 9460SOL     OW33649   4.616   2.457   3.867 -0.1018  0.5292  0.3413
 9460SOL    HW133650   4.653   2.540   3.826  0.3130  0.4183  0.4878
 9460SOL    HW233651   4.534   2.479   3.919 -0.6950  0.6513 -0.6352
 9461SOL     OW33652   4.456   6.746   3.500 -0.3108  0.2155  0.2381
 9461SOL    HW133653   4.495   6.787   3.582  1.3454  1.0022 -0.9041
 9461SOL    HW233654   4.384   6.806   3.464 -0.3707  0.3466  0.5790
 9462SOL     OW33655   2.872   7.422   0.253  0.1480 -0.1631  0.2916
 9462SOL    HW133656   2.915   7.454   0.169  0.8803 -0.5961  0.4943
 9462SOL    HW233657   2.851   7.499   0.312  0.7663  0.0460  0.2424
 9463SOL     OW33658   0.647   7.735   2.302  0.1654 -0.2816 -0.4804
 9463SOL    HW133659   0.630   7.638   2.288 -2.3509  0.1120 -0.2381
 9463SOL    HW233660   0.563   7.781   2.328  1.3355  1.9740 -0.5376
 9467SOL     OW33661   8.369   7.163   0.759  0.3084 -0.2429  0.0245
 9467SOL    HW133662   8.365   7.257   0.793 -0.9285  0.1091 -1.0837
 9467SOL    HW233663   8.285   7.141   0.710  0.0026 -2.3820  1.4385
 9468SOL     OW33664   2.184   1.174   1.737  0.1329  0.1369  0.1222
 9468SOL    HW133665   2.203   1.106   1.807  1.8307 -0.8769 -1.2683
 9468SOL    HW233666   2.220   1.142   1.649  0.9288  2.7837 -0.5690
 9469SOL     OW33667   3.946   5.026   1.494  0.2227 -0.2339  0.6204
 9469SOL    HW133668   3.968   5.007   1.399  0.2648  0.2262  0.5348
 9469SOL    HW233669   3.847   5.033   1.505  0.0385 -3.1636  1.1731
 9470SOL     OW33670   3.179   6.881   1.903 -0.0333 -0.3623  0.1086
 9470SOL    HW133671   3.142   6.823   1.975  0.7142 -0.9748  0.0109
 9470SOL    HW233672   3.126   6.868   1.819 -1.0127  0.4822  0.5912
 9471SOL     OW33673   9.133   9.233   3.430 -0.4098  0.0504  0.0144
 9471SOL    HW133674   9.079   9.307   3.389  2.1506  1.6777 -0.5128
 9471SOL    HW233675   9.175   9.179   3.358  0.1691 -0.0781  0.4499
 9472SOL     OW33676   8.285   9.119   4.107 -0.2094 -0.1431  0.0575
 9472SOL    HW133677   8.294   9.211   4.068 -1.5236  0.8896  2.0705
 9472SOL    HW233678   8.199   9.079   4.076 -0.0231 -0.3754 -0.1611
 9474SOL     OW33679   1.861   9.663   1.070  0.4241  0.6556  0.4009
 9474SOL    HW133680   1.904   9.572   1.076  0.9074  0.6327 -2.5690
 9474SOL    HW233681   1.762   9.652   1.070  0.4695 -0.1183 -2.2255
 9475SOL     OW33682   0.388   3.693   0.842  0.0358  0.0920  0.5882
 9475SOL    HW133683   0.345   3.763   0.899  0.4129 -0.8916  2.1362
 9475SOL    HW233684   0.386   3.721   0.746 -0.4374  1.8857  1.1050
 9476SOL     OW33685   7.873   6.679   3.692 -0.1464  0.0409 -0.0171
 9476SOL    HW133686   7.790   6.624   3.704 -0.5245  0.5619 -0.2433
 9476SOL    HW233687   7.877   6.711   3.597 -0.6007  1.4950  0.4506
 9478SOL     OW33688   7.578   0.503   0.904 -0.2447 -0.0230 -0.2206
 9478SOL    HW133689   7.542   0.572   0.966  0.4823  1.0491 -0.9855
 9478SOL    HW233690   7.578   0.414   0.950 -3.3673  0.0210 -0.0042
 9479SOL     OW33691   2.254   9.687   1.098 -0.1802 -0.2266  0.3467
 9479SOL    HW133692   2.193   9.759   1.133 -0.8358 -0.4068 -0.4186
 9479SOL    HW233693   2.235   9.601   1.145  0.3669  0.0139  1.0163
 9480SOL     OW33694   1.600   9.844   1.985  0.2531 -0.6666  0.3275
 9480SOL    HW133695   1.578   9.931   1.941  0.0316 -0.7934  0.1806
 9480SOL    HW233696   1.529   9.777   1.962 -0.7631 -0.2879  2.2118
 9481SOL     OW33697   9.198   8.730   0.301 -0.1872 -0.4167  0.1801
 9481SOL    HW133698   9.132   8.752   0.373 -0.3848  2.0171 -0.7079
 9481SOL    HW233699   9.151   8.728   0.213  0.3188 -1.9993 -0.0637
 9482SOL     OW33700   6.408   0.224   3.915  0.4472  0.5643 -0.7012
 9482SOL    HW133701   6.370   0.240   3.824  0.9812 -0.2969 -1.0880
 9482SOL    HW233702   6.334   0.206   3.980  0.0859  0.7980 -1.0498
 9483SOL     OW33703   1.582   5.901   2.367  0.2586 -0.0655 -0.4597
 9483SOL    HW133704   1.534   5.988   2.376 -0.8735 -0.5426 -1.7621
 9483SOL    HW233705   1.642   5.903   2.288 -0.4864 -0.7816 -1.0606
 9484SOL     OW33706   9.194   2.585   2.277 -0.2905  0.3212  0.6160
 9484SOL    HW133707   9.103   2.557   2.245  0.1186  1.8568 -1.9728
 9484SOL    HW233708   9.264   2.541   2.220  0.5067  1.5610  0.6299
 9485SOL     OW33709   5.073   6.597   2.669  0.6438  0.0774  0.3344
 9485SOL    HW133710   5.118   6.599   2.758 -0.4937  0.4620  0.9026
 9485SOL    HW233711   4.982   6.638   2.676  0.4103 -0.1987 -0.9242
 9486SOL     OW33712   4.400   1.982   0.833  0.3614  0.6855  0.8271
 9486SOL    HW133713   4.363   1.898   0.873 -1.5445  1.8628  1.5923
 9486SOL    HW233714   4.450   2.033   0.904  2.5381 -0.3483  0.0759
 9487SOL     OW33715   8.710   7.458   2.657 -0.3722  0.2333 -0.4228
 9487SOL    HW133716   8.662   7.463   2.744 -0.6782  2.2088 -0.6772
 9487SOL    HW233717   8.645   7.476   2.582  0.2144  0.2536 -0.9349
 9488SOL     OW33718   6.869   8.704   1.999 -0.1955 -0.6602  0.4692
 9488SOL    HW133719   6.801   8.716   1.927  0.3743  1.8145  0.3055
 9488SOL    HW233720   6.826   8.717   2.088  0.0569  1.1108  0.3580
 9490SOL     OW33721   3.147   0.407   0.199  0.3218  0.2187 -0.3586
 9490SOL    HW133722   3.120   0.429   0.292 -1.6542 -0.7516 -0.6891
 9490SOL    HW233723   3.243   0.378   0.198  0.4852  0.6510  1.2805
 9491SOL     OW33724   1.343   6.290   3.172  0.2732 -0.0364  0.1836
 9491SOL    HW133725   1.405   6.368   3.164 -0.2013  0.0984 -2.6153
 9491SOL    HW233726   1.271   6.311   3.237  0.8932  1.3536  0.4345
 9492SOL     OW33727   1.008   0.916   1.397 -0.3883  0.0626 -0.3287
 9492SOL    HW133728   0.982   1.005   1.434 -0.1013  0.4848 -1.1223
 9492SOL    HW233729   1.084   0.928   1.333 -0.1672 -0.7887 -0.2318
 9493SOL     OW33730   1.578   3.823   2.618 -1.0461 -0.0649 -1.0073
 9493SOL    HW133731   1.566   3.915   2.655  1.2707  0.0649 -0.5186
 9493SOL    HW233732   1.584   3.828   2.519  2.6628  0.7923 -0.8155
 9494SOL     OW33733   9.413   6.253   1.521 -0.4905  0.0665 -0.7605
 9494SOL    HW133734   9.430   6.270   1.424  0.8847  0.6435 -0.4342
 9494SOL    HW233735   9.459   6.324   1.576 -0.5277 -0.7423  0.3415
 9495SOL     OW33736   4.090   1.936   1.091 -0.4129  0.1913 -0.2837
 9495SOL    HW133737   4.108   2.016   1.033  1.2456  1.1520  1.5084
 9495SOL    HW233738   4.116   1.853   1.042  1.2837  1.0098 -0.8069
 9496SOL     OW33739   4.878   6.963   1.595  0.8207  0.5624 -0.1557
 9496SOL    HW133740   4.779   6.967   1.595  0.8423  1.2252 -0.0483
 9496SOL    HW233741   4.909   6.889   1.654  0.3824  0.0669 -0.5447
 9497SOL     OW33742   8.331   7.347   1.368  0.4839  0.3415  0.0689
 9497SOL    HW133743   8.247   7.294   1.352 -0.1844  1.8055 -1.4298
 9497SOL    HW233744   8.404   7.286   1.398 -1.5852 -0.7206  3.1404
 9498SOL     OW33745   9.747   7.122   4.012  0.3057  0.1364 -0.1659
 9498SOL    HW133746   9.709   7.178   4.086  0.3954  0.3930 -0.3118
 9498SOL    HW233747   9.833   7.080   4.044 -0.3341 -0.8172  0.3198
 9499SOL     OW33748   0.756   3.421   2.892  0.3030  0.2870  0.1338
 9499SOL    HW133749   0.718   3.329   2.899  1.0651 -0.0423  0.0136
 9499SOL    HW233750   0.702   3.475   2.828 -1.7153  0.7393  2.1531
 9500SOL     OW33751   0.649   2.104   1.172  0.2933 -0.2104 -0.4816
 9500SOL    HW133752   0.610   2.192   1.144  1.3156  0.5541  0.4396
 9500SOL    HW233753   0.687   2.057   1.092  0.0777  0.3521 -0.9182
 9501SOL     OW33754   7.785   1.569   0.287 -0.1608  0.3404  0.1392
 9501SOL    HW133755   7.806   1.611   0.198 -1.2264  0.0871 -0.2354
 9501SOL    HW233756   7.745   1.638   0.347  1.7817  0.8608  0.9052
 9502SOL     OW33757   1.561   6.729   0.230 -1.0140  0.2556  0.5474
 9502SOL    HW133758   1.471   6.701   0.197 -0.7069  0.0951 -0.1617
 9502SOL    HW233759   1.571   6.827   0.218 -0.7577  0.1423 -0.2022
 9503SOL     OW33760   7.479   8.974   1.126 -0.5577  0.2292 -0.2218
 9503SOL    HW133761   7.559   8.923   1.157 -0.5780  0.5598  0.3827
 9503SOL    HW233762   7.423   9.000   1.205 -0.6847  0.9482 -0.5438
 9504SOL     OW33763   6.470   9.650   1.465  0.1356 -0.1738  0.0915
 9504SOL    HW133764   6.558   9.607   1.488 -0.7100 -1.3166  1.2322
 9504SOL    HW233765   6.486   9.725   1.402  2.0792  0.3979  1.2181
 9505SOL     OW33766   1.118   6.876   2.118 -0.4719 -0.0222  0.2159
 9505SOL    HW133767   1.108   6.947   2.187 -0.2582 -1.6521  1.9557
 9505SOL    HW233768   1.074   6.906   2.033 -2.1333  1.3611  1.5279
 9506SOL     OW33769   7.877   4.670   0.757  0.2626  0.5447  0.1046
 9506SOL    HW133770   7.844   4.750   0.808  0.6485  0.5966  0.2726
 9506SOL    HW233771   7.862   4.684   0.659 -0.9798  0.2154  0.2420
 9507SOL     OW33772   1.257   8.324   1.980 -0.0760  0.6886  0.7353
 9507SOL    HW133773   1.231   8.316   2.076 -3.6357  0.7477 -0.1416
 9507SOL    HW233774   1.213   8.404   1.940  0.7043  0.1999 -1.1530
 9510SOL     OW33775   4.649   0.532   4.162 -0.4000  0.4493 -0.3330
 9510SOL    HW133776   4.590   0.606   4.194 -0.1423  0.4755  0.0960
 9510SOL    HW233777   4.593   0.456   4.130 -0.6650  1.0005 -1.1854
 9513SOL     OW33778   0.060   9.671   1.478  0.2896 -0.2157  0.0181
 9513SOL    HW133779   0.146   9.634   1.515  0.7106  0.0488 -0.6903
 9513SOL    HW233780   0.006   9.597   1.438  0.8724 -0.1502 -0.8886
 9514SOL     OW33781   4.564   4.345   0.998  0.1864  0.2803 -0.1444
 9514SOL    HW133782   4.544   4.363   0.902  0.6960 -1.0712 -0.5166
 9514SOL    HW233783   4.645   4.396   1.026 -0.6296  1.5756 -0.1026
 9515SOL     OW33784   2.318   9.729   3.062 -0.0016 -0.2647  0.2063
 9515SOL    HW133785   2.345   9.797   3.130  1.5162 -0.7659  0.1092
 9515SOL    HW233786   2.399   9.688   3.021 -0.8951 -2.1946  0.2958
 9516SOL     OW33787   9.902   6.148   1.557  0.3721 -0.3188  0.0868
 9516SOL    HW133788   9.860   6.233   1.525 -0.2785 -0.4422  0.5856
 9516SOL    HW233789   9.927   6.090   1.479  1.8240  0.7967 -0.2987
 9517SOL     OW33790   7.646   6.011   2.966  0.1488  0.0609 -0.3370
 9517SOL    HW133791   7.688   6.092   2.926 -1.4448  0.2262 -1.7278
 9517SOL    HW233792   7.549   6.009   2.943 -0.3691 -0.9343  1.8035
 9518SOL     OW33793   4.912   9.845   2.674 -0.1765  0.2917 -0.7846
 9518SOL    HW133794   4.981   9.773   2.661 -2.5685 -2.0341 -0.9337
 9518SOL    HW233795   4.828   9.805   2.709 -1.7426  2.9839 -1.3187
 9520SOL     OW33796   7.311   6.973   3.167  0.2425  0.5045 -0.0698
 9520SOL    HW133797   7.211   6.971   3.167  0.1734  2.7302  0.9417
 9520SOL    HW233798   7.344   6.970   3.073 -0.7253 -1.1451 -0.3845
 9521SOL     OW33799   8.295   1.501   3.862  0.4088  0.3010 -0.2477
 9521SOL    HW133800   8.360   1.565   3.903  1.5879  1.1553 -3.3067
 9521SOL    HW233801   8.203   1.540   3.864  0.5571  0.6131  0.9062
 9522SOL     OW33802   0.917   8.768   1.262 -0.9081 -0.8863 -0.8560
 9522SOL    HW133803   0.831   8.778   1.211 -0.4946 -0.9653 -1.5754
 9522SOL    HW233804   0.949   8.674   1.254  0.8965 -0.1219 -3.2832
 9523SOL     OW33805   0.629   2.758   2.259  0.1650  0.0551  0.4261
 9523SOL    HW133806   0.561   2.687   2.276  1.1364 -0.5998  1.5944
 9523SOL    HW233807   0.687   2.770   2.339  0.6061  1.5318 -0.0843
 9524SOL     OW33808   4.122   1.799   1.371 -0.2377 -0.8212 -0.0528
 9524SOL    HW133809   4.194   1.731   1.368 -0.9802 -1.5575 -1.9766
 9524SOL    HW233810   4.107   1.836   1.279 -0.0216  1.7579  0.9055
 9525SOL     OW33811   8.998   6.938   3.244  0.1403 -0.3607  0.3136
 9525SOL    HW133812   9.027   7.026   3.282  0.9476 -0.9440  1.0490
 9525SOL    HW233813   8.899   6.938   3.232  0.1281  0.6210  0.3867
 9526SOL     OW33814   1.777   0.114   3.097  0.1850  0.3886  0.1136
 9526SOL    HW133815   1.874   0.126   3.079  0.6597 -1.0090  1.5467
 9526SOL    HW233816   1.759   0.018   3.119 -1.7821  0.3266 -1.6084
 9527SOL     OW33817   9.479   9.758   2.258  0.4384 -0.1207 -0.1415
 9527SOL    HW133818   9.530   9.696   2.199  0.7948  0.7177 -0.7214
 9527SOL    HW233819   9.419   9.815   2.201  0.2078  0.1532  0.3807
 9529SOL     OW33820   3.622   7.758   0.635 -0.6368  0.5487  0.0849
 9529SOL    HW133821   3.598   7.774   0.731  0.6670  1.7207  0.2307
 9529SOL    HW233822   3.569   7.819   0.577 -2.3393 -1.0200 -0.0580
 9532SOL     OW33823   0.904   9.035   0.738  0.3610 -0.2136 -0.2771
 9532SOL    HW133824   0.976   8.990   0.687  0.8165 -0.6140  0.7207
 9532SOL    HW233825   0.896   8.995   0.829 -1.7566 -0.8295 -0.6952
 9533SOL     OW33826   2.758   0.909   0.071 -0.0585 -0.2915 -0.3564
 9533SOL    HW133827   2.834   0.971   0.050 -0.0877 -0.8235 -2.1867
 9533SOL    HW233828   2.779   0.857   0.154  1.8053 -0.7539 -1.0865
 9534SOL     OW33829   0.713   9.402   3.612 -0.5784  0.5125 -0.6914
 9534SOL    HW133830   0.648   9.476   3.596  0.7828  1.4839 -1.7718
 9534SOL    HW233831   0.666   9.314   3.599 -0.9948  1.1894 -4.5999
 9535SOL     OW33832   3.404   8.054   3.462 -0.6429  0.6231  0.2463
 9535SOL    HW133833   3.390   7.970   3.409 -0.0415 -0.1272  1.2420
 9535SOL    HW233834   3.502   8.073   3.467 -0.5196 -0.4199  2.7213
 9536SOL     OW33835   1.865   0.335   0.343  0.2399 -0.1369  0.1886
 9536SOL    HW133836   1.880   0.245   0.302 -0.3106 -0.4487  0.6592
 9536SOL    HW233837   1.947   0.391   0.332  0.1360 -0.2510 -1.2377
 9537SOL     OW33838   2.396   5.648   3.440 -0.7195  0.2709 -0.0304
 9537SOL    HW133839   2.381   5.745   3.457  3.7887  1.1261 -0.4739
 9537SOL    HW233840   2.368   5.595   3.520 -0.8457  2.1688  1.2005
 9539SOL     OW33841   8.659   7.810   1.973  0.0485  0.0116  0.3134
 9539SOL    HW133842   8.568   7.806   2.013  0.0073  0.0828  0.2289
 9539SOL    HW233843   8.651   7.822   1.874  0.1352  3.1066  0.6246
 9541SOL     OW33844   0.536   2.096   3.104 -0.3020 -0.4416  0.4329
 9541SOL    HW133845   0.509   2.075   3.010 -0.0248 -1.3837  0.5629
 9541SOL    HW233846   0.631   2.070   3.118 -0.1629  0.2577  0.8059
 9542SOL     OW33847   1.089   8.544   0.319  0.2509  0.0331  0.2906
 9542SOL    HW133848   1.152   8.587   0.383 -0.5818  0.6409  0.7070
 9542SOL    HW233849   1.132   8.538   0.229  1.1788 -0.2374  0.7433
 9544SOL     OW33850   9.678   8.969   3.185  0.1865  0.6914 -0.3357
 9544SOL    HW133851   9.766   9.016   3.194  1.1020 -1.1900  0.8125
 9544SOL    HW233852   9.608   9.023   3.232  1.0850  1.2743  0.3683
 9545SOL     OW33853   3.087   6.484   0.145 -0.0390  0.2268 -0.5667
 9545SOL    HW133854   3.142   6.524   0.072 -0.9522  0.8716 -0.9147
 9545SOL    HW233855   3.106   6.532   0.231 -1.6429  1.8982 -1.1231
 9547SOL     OW33856   9.749   7.931   2.989 -0.0183  0.1774  0.4266
 9547SOL    HW133857   9.781   7.980   3.070  1.2678 -0.3209  0.2300
 9547SOL    HW233858   9.670   7.978   2.950 -0.7949  0.2965  2.0986
 9548SOL     OW33859   3.020   0.707   3.109 -0.1153 -0.5456  0.4777
 9548SOL    HW133860   2.966   0.718   3.192 -1.1634  0.0802 -0.2815
 9548SOL    HW233861   3.117   0.706   3.133 -0.4421 -1.4182  1.8160
 9549SOL     OW33862   8.832   4.674   1.649 -0.2325 -0.0070  0.4041
 9549SOL    HW133863   8.882   4.591   1.670  0.5232  0.1605 -0.7263
 9549SOL    HW233864   8.896   4.750   1.639 -0.9642  0.8886  2.1523
 9550SOL     OW33865   3.135   0.383   1.393 -0.3361 -0.4918 -0.3006
 9550SOL    HW133866   3.220   0.405   1.442 -1.0471  2.3463 -0.2700
 9550SOL    HW233867   3.068   0.346   1.457 -0.4430  0.9421  0.4273
 9551SOL     OW33868   9.712   7.134   0.984 -0.4039  0.2461 -0.4081
 9551SOL    HW133869   9.684   7.116   1.078  0.0834  1.0147 -0.1104
 9551SOL    HW233870   9.634   7.121   0.923 -1.0766  1.1196  0.2586
 9552SOL     OW33871   4.331   8.743   0.792 -0.6144  0.4298  0.1248
 9552SOL    HW133872   4.326   8.841   0.809  1.4939  0.4832  0.4739
 9552SOL    HW233873   4.258   8.717   0.728 -0.0761  2.5151 -1.3979
 9553SOL     OW33874   4.044   3.918   0.298  0.4426 -0.8058  0.4879
 9553SOL    HW133875   4.069   3.968   0.381  0.1490  1.7392 -0.8817
 9553SOL    HW233876   3.945   3.917   0.289  0.5051  0.2388 -0.5412
 9554SOL     OW33877   3.194   9.987   0.123  1.1844 -0.6071  0.2472
 9554SOL    HW133878   3.139  10.025   0.197  1.1096 -1.6069  0.7128
 9554SOL    HW233879   3.288  10.021   0.131  1.1641 -0.6698  0.7661
 9555SOL     OW33880   8.411   3.668   0.772 -0.3854 -0.2480  0.4990
 9555SOL    HW133881   8.394   3.704   0.680 -0.3424  1.0386  0.9757
 9555SOL    HW233882   8.327   3.677   0.826 -0.1110 -0.0248  0.8904
 9557SOL     OW33883   7.753   9.923   3.998  0.3478 -0.2545  0.9190
 9557SOL    HW133884   7.722   9.829   4.016  1.9952 -0.6821  1.5874
 9557SOL    HW233885   7.801   9.958   4.078 -0.1905  1.1485  0.6398
 9559SOL     OW33886   2.057   2.776   0.741 -0.7515 -0.5596 -0.2414
 9559SOL    HW133887   2.079   2.873   0.757 -5.2600  0.5662 -0.0978
 9559SOL    HW233888   2.051   2.729   0.829 -0.1413 -0.5899 -0.2140
 9560SOL     OW33889   1.705   8.224   3.252 -0.4702  0.8576  0.0914
 9560SOL    HW133890   1.653   8.277   3.185 -1.5888 -1.2612 -0.7436
 9560SOL    HW233891   1.786   8.185   3.209 -1.5536 -1.0825 -0.2579
 9561SOL     OW33892   6.230   1.743   3.438 -0.1084 -0.1176  0.2413
 9561SOL    HW133893   6.275   1.818   3.487  0.2725  0.7149 -1.3634
 9561SOL    HW233894   6.287   1.715   3.360 -1.2334 -0.6951 -0.3759
 9562SOL     OW33895   6.637   8.725   1.790  0.1224 -0.0019  0.0379
 9562SOL    HW133896   6.559   8.753   1.734  1.8906  3.6372 -0.7008
 9562SOL    HW233897   6.666   8.633   1.762 -2.4195 -0.4519 -1.2472
 9563SOL     OW33898   6.330   8.633   2.619 -0.2915 -0.9330  0.1654
 9563SOL    HW133899   6.313   8.678   2.531  0.0603 -0.6361  0.2493
 9563SOL    HW233900   6.369   8.543   2.603  3.4262  0.6068  0.0625
 9564SOL     OW33901   9.559   0.436   3.327  0.0393  0.1405  0.2956
 9564SOL    HW133902   9.462   0.451   3.350  0.2170  2.0382 -0.1672
 9564SOL    HW233903   9.616   0.477   3.397  0.5496 -2.9915  1.8184
 9565SOL     OW33904   5.191   0.062   0.925 -0.2371  0.5688  0.5211
 9565SOL    HW133905   5.207   0.155   0.958 -3.3867  0.7588  1.6234
 9565SOL    HW233906   5.229  -0.004   0.991 -1.4045  1.0359  1.6741
 9566SOL     OW33907   3.428   3.421   3.184 -0.7500  0.1362 -0.3143
 9566SOL    HW133908   3.343   3.371   3.164 -0.4692 -0.1233 -0.8664
 9566SOL    HW233909   3.459   3.399   3.276 -0.4805 -0.9073 -0.6590
 9567SOL     OW33910   9.815   6.220   3.982 -0.6705  0.1815 -0.0937
 9567SOL    HW133911   9.815   6.315   4.014 -1.4489  0.3532 -0.5889
 9567SOL    HW233912   9.791   6.159   4.058  2.1747  0.1442  0.8461
 9569SOL     OW33913   3.858   7.094   3.162 -0.2946 -0.3188 -0.1957
 9569SOL    HW133914   3.825   7.133   3.076  2.0434  1.7634 -0.1791
 9569SOL    HW233915   3.952   7.061   3.151 -0.2362 -0.7309  1.3634
 9570SOL     OW33916   4.291   6.104   0.949  0.3577  0.2190 -0.0823
 9570SOL    HW133917   4.345   6.136   1.027  1.7150  0.5453 -1.1319
 9570SOL    HW233918   4.327   6.145   0.865 -1.8568  0.8275 -0.7507
 9571SOL     OW33919   2.168   3.053   3.074  0.2943 -0.4004  0.1915
 9571SOL    HW133920   2.238   3.055   3.002  0.2666  0.5838  0.1853
 9571SOL    HW233921   2.083   3.015   3.037  0.4865 -0.5505 -0.0995
 9572SOL     OW33922   7.441   2.519   0.189 -0.0393  0.4138 -0.2243
 9572SOL    HW133923   7.439   2.420   0.178 -2.2032  0.3861  0.1044
 9572SOL    HW233924   7.496   2.560   0.117  0.1722 -0.9659 -0.8624
 9573SOL     OW33925   4.007   6.156   0.940  0.2238  0.3683 -0.3578
 9573SOL    HW133926   4.103   6.173   0.963  0.1226 -0.3785  0.6028
 9573SOL    HW233927   3.973   6.232   0.884  1.0080  1.2489  0.3528
 9574SOL     OW33928   4.443   2.690   3.086 -0.0244  0.4005  0.2040
 9574SOL    HW133929   4.412   2.765   3.027  0.5074  0.3124 -0.2001
 9574SOL    HW233930   4.364   2.642   3.123 -0.3743  1.3796  0.7502
 9575SOL     OW33931   0.849   9.662   3.016  0.1013  0.3328  0.0951
 9575SOL    HW133932   0.758   9.668   2.974  0.3112 -1.3569 -0.6372
 9575SOL    HW233933   0.857   9.732   3.087 -2.3331 -0.4826  1.2369
 9576SOL     OW33934   0.576   7.459   1.189  0.1150  0.6292 -0.7662
 9576SOL    HW133935   0.486   7.486   1.155 -0.6949 -1.5585 -0.4199
 9576SOL    HW233936   0.617   7.393   1.125  0.9479  0.6869 -0.2952
 9577SOL     OW33937   1.159   2.996   0.141  0.1365  0.1222  0.1776
 9577SOL    HW133938   1.215   2.957   0.068  0.1044  0.3221  0.0440
 9577SOL    HW233939   1.102   2.925   0.181 -1.2242  0.3726 -1.2555
 9578SOL     OW33940   0.395   4.617   0.846  0.2325  0.0531 -0.5624
 9578SOL    HW133941   0.346   4.531   0.860 -0.0318  0.3597  0.4259
 9578SOL    HW233942   0.407   4.664   0.933 -0.7076  1.6024 -1.2311
 9579SOL     OW33943   3.597   8.474   0.943 -0.0184 -0.5251 -0.1701
 9579SOL    HW133944   3.500   8.498   0.954  0.3359  0.2595  1.4278
 9579SOL    HW233945   3.638   8.460   1.033  1.7899  0.9229 -0.7243
 9580SOL     OW33946   1.384   0.058   2.019 -0.0148 -0.0166 -0.2214
 9580SOL    HW133947   1.471   0.061   1.970 -0.1978 -0.7754 -0.5935
 9580SOL    HW233948   1.343   0.149   2.019 -0.5128 -0.2122 -2.3789
 9581SOL     OW33949   1.293   3.939   1.320 -0.0303  0.6432 -0.6162
 9581SOL    HW133950   1.334   3.848   1.324 -1.7010 -0.0801  0.9695
 9581SOL    HW233951   1.327   3.988   1.240  1.5347 -1.0591 -1.0121
 9582SOL     OW33952   8.326   9.803   4.223 -0.6510 -0.3391 -0.1445
 9582SOL    HW133953   8.372   9.826   4.137  1.4766 -1.6932  0.5779
 9582SOL    HW233954   8.274   9.718   4.211 -1.0759 -0.0566 -0.3210
 9583SOL     OW33955   4.433   8.626   3.618  0.1358  0.4818 -0.1202
 9583SOL    HW133956   4.515   8.622   3.561 -0.7981  0.9367 -1.5171
 9583SOL    HW233957   4.360   8.673   3.568 -1.2629 -0.7272  0.7500
 9585SOL     OW33958   3.152   1.148   4.009  0.0346  0.1693 -0.0067
 9585SOL    HW133959   3.209   1.066   4.013  1.0822  0.7221 -2.6054
 9585SOL    HW233960   3.056   1.122   4.010  0.3631 -1.0968 -1.0026
 9586SOL     OW33961   4.408   1.170   2.305 -0.5405  0.1069 -0.0208
 9586SOL    HW133962   4.449   1.211   2.224  0.1197 -0.3463  0.0816
 9586SOL    HW233963   4.463   1.092   2.335 -0.6670  0.3978  0.9919
 9587SOL     OW33964   4.482   3.279   0.695  0.3090 -0.2044 -0.0405
 9587SOL    HW133965   4.464   3.376   0.677  0.6233  0.6575  3.8066
 9587SOL    HW233966   4.577   3.259   0.672  0.3500  0.4828 -0.5077
 9588SOL     OW33967   8.428   1.722   2.779  0.0306  0.4936 -0.5029
 9588SOL    HW133968   8.446   1.654   2.707  1.1460  0.5095 -0.2442
 9588SOL    HW233969   8.438   1.814   2.741  0.5455  0.5022 -0.3521
 9589SOL     OW33970   4.693   2.174   2.350  0.0388 -0.3896 -0.0480
 9589SOL    HW133971   4.715   2.170   2.448  0.8520 -0.9054 -0.2433
 9589SOL    HW233972   4.612   2.117   2.333 -0.3946  0.0856  0.3988
 9590SOL     OW33973   8.722   5.228   2.320 -0.0066  0.0955 -0.1128
 9590SOL    HW133974   8.755   5.145   2.365  2.7691  0.9511 -0.4777
 9590SOL    HW233975   8.730   5.218   2.221  0.6693  0.9043 -0.1468
 9591SOL     OW33976   3.222   7.364   2.547 -0.3891 -0.1724  0.2139
 9591SOL    HW133977   3.203   7.277   2.502  0.4349 -0.2789  0.0790
 9591SOL    HW233978   3.203   7.439   2.483  2.4643 -0.3813 -0.9099
 9593SOL     OW33979   0.612   9.625   2.883  0.3605  0.3698 -0.8372
 9593SOL    HW133980   0.636   9.707   2.832  0.3144 -0.1868 -1.7742
 9593SOL    HW233981   0.598   9.549   2.819 -1.2411  0.0413 -0.1285
 9595SOL     OW33982   2.237   2.848   2.700 -0.5224  0.0676 -0.5048
 9595SOL    HW133983   2.318   2.814   2.748 -1.3233 -0.4186  0.5216
 9595SOL    HW233984   2.185   2.908   2.761  0.8102  3.0764 -2.2584
 9596SOL     OW33985   8.520   2.643   3.976 -0.2802 -0.2052  0.2357
 9596SOL    HW133986   8.544   2.732   4.016 -1.4262  0.7571 -1.1949
 9596SOL    HW233987   8.602   2.586   3.972  0.3650  0.5974  1.6242
 9597SOL     OW33988   7.076   7.754   2.335 -0.2954  0.5196  0.7240
 9597SOL    HW133989   7.075   7.746   2.435  0.6851  2.4172  0.9167
 9597SOL    HW233990   7.169   7.770   2.304 -0.0927 -3.1688 -0.8321
 9598SOL     OW33991   2.946   5.766   1.976 -0.1477  0.2535 -0.6150
 9598SOL    HW133992   2.972   5.798   1.885 -0.3407 -0.1104 -0.7977
 9598SOL    HW233993   2.853   5.729   1.974 -0.5729  1.2739 -0.0229
 9599SOL     OW33994   7.712   8.998   2.583  0.5277  0.0022 -0.9329
 9599SOL    HW133995   7.679   8.916   2.536 -1.7207  0.1635  0.3175
 9599SOL    HW233996   7.686   9.079   2.530 -1.7651  0.1691  0.4107
 9600SOL     OW33997   8.505   6.240   3.851 -0.1447 -0.2427 -0.2216
 9600SOL    HW133998   8.533   6.292   3.932  0.4513  1.8222 -1.7201
 9600SOL    HW233999   8.445   6.296   3.794 -0.3187 -1.5678 -1.3603
 9602SOL     OW34000   4.309   2.117   2.223  0.1953 -0.2135 -0.3713
 9602SOL    HW134001   4.222   2.095   2.179 -0.6887  2.7817 -0.2231
 9602SOL    HW234002   4.360   2.182   2.167  1.6350 -0.7379  0.2956
 9604SOL     OW34003   8.679   2.524   1.573  0.2562 -0.3566  0.1899
 9604SOL    HW134004   8.702   2.553   1.666 -1.4313  1.3105  0.1206
 9604SOL    HW234005   8.750   2.553   1.510  0.0419  1.0036  0.5678
 9606SOL     OW34006   3.261   2.163   0.792  0.4297  0.0294 -0.3837
 9606SOL    HW134007   3.210   2.215   0.860  3.0237  2.1681 -0.0020
 9606SOL    HW234008   3.201   2.095   0.751 -1.5567 -0.4491  3.0954
 9607SOL     OW34009   2.831   5.141   1.420 -0.0472  0.0892  0.2252
 9607SOL    HW134010   2.860   5.046   1.413 -0.5533 -0.2771  2.7028
 9607SOL    HW234011   2.895   5.192   1.477 -1.2865  0.5372  1.2485
 9609SOL     OW34012   9.595   0.973   4.023 -0.3510 -0.7057 -0.2124
 9609SOL    HW134013   9.621   0.925   3.939 -1.7621  0.4442 -1.3405
 9609SOL    HW234014   9.556   0.909   4.088 -1.3995 -1.2475 -1.3510
 9610SOL     OW34015   3.092   4.732   0.837 -0.0787  0.3849 -0.0897
 9610SOL    HW134016   3.103   4.676   0.918 -1.7150 -1.0353 -0.8038
 9610SOL    HW234017   3.021   4.801   0.853 -0.7952 -0.2488 -0.4605
 9611SOL     OW34018   9.428   9.876   3.849  0.4332  0.2980  0.3024
 9611SOL    HW134019   9.433   9.848   3.753 -1.2493 -0.6020  0.4525
 9611SOL    HW234020   9.503   9.938   3.870  1.1479  0.0460 -1.4470
 9612SOL     OW34021   5.404   8.999   3.242  0.5704  0.2309  0.4647
 9612SOL    HW134022   5.481   8.952   3.199 -0.1326 -1.3160  0.8769
 9612SOL    HW234023   5.323   8.992   3.182  0.6049  1.4079  0.2684
 9613SOL     OW34024   0.317   4.754   0.608 -0.0963  0.5452  0.0151
 9613SOL    HW134025   0.368   4.722   0.688  0.1764 -0.0401 -0.3895
 9613SOL    HW234026   0.374   4.747   0.527 -1.2518 -1.3755 -0.6514
 9614SOL     OW34027   8.689   8.734   0.299  0.0879  0.0426  0.6023
 9614SOL    HW134028   8.610   8.734   0.238  0.3328 -1.1387  0.2631
 9614SOL    HW234029   8.687   8.815   0.356  0.5301  1.8260 -1.8437
 9615SOL     OW34030   8.007   7.278   3.850  0.0614 -0.0194  0.0254
 9615SOL    HW134031   7.988   7.181   3.836 -0.2005 -0.2184  1.7106
 9615SOL    HW234032   7.920   7.327   3.861  0.2307  0.2914 -0.0323
 9616SOL     OW34033   2.866   4.205   0.796  0.0751  0.3922  0.0856
 9616SOL    HW134034   2.947   4.147   0.804 -0.3254 -0.5613 -2.4184
 9616SOL    HW234035   2.893   4.296   0.766  0.2015 -0.0181 -1.0585
 9617SOL     OW34036   4.757   3.186   0.500 -0.2422 -0.6493  0.5905
 9617SOL    HW134037   4.676   3.179   0.441 -0.0647 -1.7453  0.4545
 9617SOL    HW234038   4.839   3.170   0.445  0.0177 -0.2771  0.8719
 9618SOL     OW34039   1.755   1.971   3.190 -0.5458  0.1791  0.2808
 9618SOL    HW134040   1.710   1.894   3.144 -1.0422 -0.0667  1.1684
 9618SOL    HW234041   1.850   1.977   3.159 -0.8482 -0.0441 -0.6987
 9619SOL     OW34042   9.673   3.015   2.564 -0.7437 -0.8660 -0.3797
 9619SOL    HW134043   9.615   3.093   2.545 -1.7225 -1.8942 -1.6773
 9619SOL    HW234044   9.617   2.932   2.572  0.2820 -1.4605  0.8879
 9620SOL     OW34045   2.880   7.851   2.711 -0.1588  0.0885  0.4212
 9620SOL    HW134046   2.824   7.908   2.771 -0.0510  1.1372 -0.4656
 9620SOL    HW234047   2.823   7.781   2.669 -1.1133  1.9644 -1.4987
 9621SOL     OW34048   1.788   0.946   2.005  0.0095  0.2897  0.4402
 9621SOL    HW134049   1.701   0.907   1.976  0.3361  0.2902 -0.5490
 9621SOL    HW234050   1.771   1.021   2.069 -0.6877 -0.1564  0.7822
 9622SOL     OW34051   0.917   1.651   3.653 -0.1296  0.1417  0.4315
 9622SOL    HW134052   0.884   1.699   3.572 -0.5439  0.1289  0.5922
 9622SOL    HW234053   1.008   1.685   3.677 -0.2272  0.5186  0.2758
 9623SOL     OW34054   8.131   7.054   3.687  0.3817  0.0014  0.5531
 9623SOL    HW134055   8.205   6.988   3.676 -0.8014 -1.3155  0.3497
 9623SOL    HW234056   8.169   7.146   3.689  2.0828 -0.6839  1.0934
 9624SOL     OW34057   5.057   9.014   1.968  0.4344  0.1264  0.4406
 9624SOL    HW134058   5.142   9.013   1.916  0.8796  1.2349  1.1194
 9624SOL    HW234059   5.065   8.953   2.047  0.9271  0.8896  0.9893
 9625SOL     OW34060   0.201   7.718   0.632  0.0549  0.0018  0.0311
 9625SOL    HW134061   0.252   7.803   0.635 -0.4115  0.2588  0.8936
 9625SOL    HW234062   0.129   7.724   0.562  0.1298  0.2478 -0.0241
 9626SOL     OW34063   2.057   7.652   3.360 -0.2134  0.0481  0.3864
 9626SOL    HW134064   2.073   7.641   3.458  0.9837  1.4846  0.3759
 9626SOL    HW234065   2.145   7.647   3.312 -0.8109 -0.8109 -0.6316
 9628SOL     OW34066   7.309   3.543   0.481 -0.6467  0.1326  0.1354
 9628SOL    HW134067   7.312   3.539   0.381 -3.4920  3.6946 -0.1782
 9628SOL    HW234068   7.377   3.609   0.514  1.4559 -2.2603  0.7307
 9629SOL     OW34069   0.292   8.236   0.938  0.3246 -0.0279 -0.2751
 9629SOL    HW134070   0.302   8.321   0.990 -0.2454  0.3514 -0.7647
 9629SOL    HW234071   0.269   8.161   0.999 -0.1684  0.3811  0.0471
 9630SOL     OW34072   3.243   3.721   0.480  0.2984 -0.8708  0.2625
 9630SOL    HW134073   3.176   3.662   0.526 -0.6379  0.8420  1.1202
 9630SOL    HW234074   3.329   3.720   0.532 -0.3544  0.0759  1.3785
 9631SOL     OW34075   9.049   1.433   1.347  0.6631  0.2556 -0.2327
 9631SOL    HW134076   8.993   1.360   1.388 -0.7574  0.9006 -0.9807
 9631SOL    HW234077   8.996   1.517   1.345  1.0651  0.4780 -2.4809
 9632SOL     OW34078   1.299   2.151   3.592 -0.1657  0.3368  0.0844
 9632SOL    HW134079   1.353   2.226   3.555 -1.1092 -0.3538 -2.7713
 9632SOL    HW234080   1.359   2.075   3.618  0.4672  0.7016 -0.3136
 9633SOL     OW34081   1.408   9.997   0.414 -0.4614  0.2429  0.1827
 9633SOL    HW134082   1.405   9.908   0.460 -0.8562 -0.2359 -0.7542
 9633SOL    HW234083   1.472   9.993   0.337  0.5975  1.1960  1.0114
 9634SOL     OW34084   8.308   1.689   0.422 -0.0498  0.2307  0.6600
 9634SOL    HW134085   8.291   1.783   0.392  1.4772  0.2885 -0.0682
 9634SOL    HW234086   8.225   1.652   0.465 -1.5213  1.0012 -1.4060
 9636SOL     OW34087   7.401   0.517   2.852 -0.3910  0.0137 -0.6338
 9636SOL    HW134088   7.332   0.445   2.850  0.1634 -0.5389  0.0108
 9636SOL    HW234089   7.383   0.582   2.778 -1.6323 -0.0963 -0.4432
 9637SOL     OW34090   1.938   8.337   0.281 -0.0259 -0.3330  0.2191
 9637SOL    HW134091   1.877   8.319   0.358 -0.4978 -1.2567 -0.3590
 9637SOL    HW234092   2.033   8.323   0.309 -0.1943 -0.6113  0.6481
 9638SOL     OW34093   4.424   8.582   2.946  0.1910  0.0434 -0.1233
 9638SOL    HW134094   4.437   8.678   2.973 -2.1011  0.0850  0.9594
 9638SOL    HW234095   4.459   8.522   3.018 -0.6276  0.0991  0.3253
 9639SOL     OW34096   1.016   7.663   3.415 -0.0730 -0.3087 -0.3367
 9639SOL    HW134097   0.924   7.687   3.386 -0.8154 -0.1131  2.0461
 9639SOL    HW234098   1.083   7.702   3.352 -1.6294 -0.9877 -2.4466
 9640SOL     OW34099   3.223   9.312   3.784  0.1726 -0.1543  0.0341
 9640SOL    HW134100   3.318   9.333   3.763  0.2573  0.2286  0.8002
 9640SOL    HW234101   3.203   9.218   3.758  0.5806 -0.0362 -0.7273
 9642SOL     OW34102   3.274   1.403   2.549 -0.5726  0.1254  0.4013
 9642SOL    HW134103   3.252   1.336   2.621  1.3263 -0.7891  0.1472
 9642SOL    HW234104   3.351   1.369   2.495 -0.0009  2.2442 -0.1322
 9643SOL     OW34105   9.565   1.156   2.151  0.3260  0.1633  0.1965
 9643SOL    HW134106   9.575   1.058   2.167 -1.6603  0.3116  2.7373
 9643SOL    HW234107   9.545   1.172   2.054  0.9021 -1.9103 -0.2912
 9644SOL     OW34108   1.877   0.081   0.134  0.1156 -0.2436  0.7078
 9644SOL    HW134109   1.943   0.007   0.144  0.9259  0.3771  0.0854
 9644SOL    HW234110   1.910   0.146   0.065 -1.3861 -0.1804  0.0312
 9646SOL     OW34111   8.840   8.166   2.127 -0.1987  0.0542  0.2368
 9646SOL    HW134112   8.896   8.246   2.150 -1.0781  0.0739  2.4467
 9646SOL    HW234113   8.886   8.083   2.158 -0.2962 -0.1255 -0.0968
 9647SOL     OW34114   0.059   9.124   4.083 -0.0308  0.4559  0.3144
 9647SOL    HW134115   0.151   9.126   4.121  1.0784 -1.1612 -2.0981
 9647SOL    HW234116   0.029   9.217   4.062  1.2252  0.9584  0.7112
 9648SOL     OW34117   2.689   8.372   2.175  0.0143 -0.1344 -0.2234
 9648SOL    HW134118   2.739   8.384   2.261 -0.5088  0.9074 -0.0566
 9648SOL    HW234119   2.712   8.283   2.136 -0.3439 -0.9583  1.3892
 9649SOL     OW34120   1.468   0.672   2.766  0.7819  1.2013 -0.6167
 9649SOL    HW134121   1.453   0.688   2.668 -0.0907 -2.1301 -1.0665
 9649SOL    HW234122   1.565   0.652   2.781  1.2292  3.3073 -0.5290
 9650SOL     OW34123   6.092   9.102   3.258  0.3800  0.3087 -0.5518
 9650SOL    HW134124   6.190   9.087   3.274  0.2343  0.8168  0.9606
 9650SOL    HW234125   6.079   9.148   3.171  1.3574 -1.3633 -1.6133
 9651SOL     OW34126   4.412   5.766   1.645 -0.7493 -0.0862  0.1994
 9651SOL    HW134127   4.400   5.837   1.576 -0.4379  0.1415  0.3739
 9651SOL    HW234128   4.450   5.808   1.728  0.4957 -0.6575 -0.0844
 9652SOL     OW34129   2.229   7.150   4.221 -0.3490 -0.9321 -0.6437
 9652SOL    HW134130   2.320   7.110   4.211  1.0891  1.8077  1.1499
 9652SOL    HW234131   2.212   7.214   4.146 -1.4000 -2.4159 -1.7288
 9653SOL     OW34132   5.570   7.159   3.531  0.1067 -0.0996  0.2247
 9653SOL    HW134133   5.655   7.190   3.488  0.2584  0.7255  1.0975
 9653SOL    HW234134   5.493   7.214   3.497  0.0859 -0.0836  0.2970
 9654SOL     OW34135   0.976   5.488   3.845 -0.1764 -0.4038 -0.3213
 9654SOL    HW134136   0.884   5.524   3.858 -1.1091 -1.5971 -3.0774
 9654SOL    HW234137   1.028   5.497   3.929 -3.1152 -0.5541  1.5785
 9655SOL     OW34138   5.949   1.069   1.413 -0.0904 -0.6153  0.7749
 9655SOL    HW134139   5.957   1.075   1.314  2.1095 -0.1462  0.9435
 9655SOL    HW234140   5.984   0.981   1.444  2.2446  0.4907  1.3770
 9656SOL     OW34141   3.483   3.373   2.295  0.3148 -0.5906 -0.3726
 9656SOL    HW134142   3.565   3.326   2.263  0.8787 -0.6038  1.0537
 9656SOL    HW234143   3.492   3.471   2.278 -0.6141 -0.9048 -2.8180
 9658SOL     OW34144   8.102   8.811   1.339  0.4445  0.6139  0.4690
 9658SOL    HW134145   8.152   8.828   1.254  3.0418 -0.4308  1.7126
 9658SOL    HW234146   8.168   8.800   1.414 -1.7848  1.4027  2.5959
 9659SOL     OW34147   0.529   8.605   3.374  0.0613 -0.2111 -0.1210
 9659SOL    HW134148   0.621   8.613   3.413  0.4459  0.8253 -1.2125
 9659SOL    HW234149   0.462   8.645   3.436  0.5967  0.8906 -0.2372
 9660SOL     OW34150   1.580   5.829   1.852  0.1391  0.2047 -0.2072
 9660SOL    HW134151   1.644   5.856   1.780  1.0043  1.4312  0.9839
 9660SOL    HW234152   1.622   5.847   1.941 -1.8202  0.8639  0.5936
 9661SOL     OW34153   8.322   2.385   0.337  0.5642 -0.3328 -0.0737
 9661SOL    HW134154   8.288   2.474   0.366 -0.4521 -0.6025 -0.4215
 9661SOL    HW234155   8.359   2.337   0.417  1.6105  0.6068  0.0169
 9662SOL     OW34156   2.724   0.734   1.991  0.3356  0.8130  0.2096
 9662SOL    HW134157   2.667   0.674   1.935 -1.5419  0.9637  1.8956
 9662SOL    HW234158   2.745   0.689   2.078  3.1470  0.6101 -0.5325
 9663SOL     OW34159   1.696   0.199   3.596 -0.1920  0.2758  0.2327
 9663SOL    HW134160   1.636   0.139   3.649 -0.8786 -0.2145 -1.0767
 9663SOL    HW234161   1.771   0.230   3.654  1.0435 -3.0713  0.5077
 9664SOL     OW34162   2.890   3.163   2.792  0.5869  0.1744 -0.5294
 9664SOL    HW134163   2.916   3.124   2.880 -0.7156 -0.3096 -0.3385
 9664SOL    HW234164   2.971   3.192   2.742  1.3092  0.9492  1.0615
 9665SOL     OW34165   9.736   7.918   0.559  0.0174 -0.1874  0.4963
 9665SOL    HW134166   9.653   7.972   0.571 -0.1079 -0.4859  1.0242
 9665SOL    HW234167   9.724   7.854   0.483  0.7632  1.6320 -1.1816
 9666SOL     OW34168   1.068   0.049   2.628  0.2293  0.1032  0.1600
 9666SOL    HW134169   1.021   0.002   2.703 -1.6160  0.5184 -0.7159
 9666SOL    HW234170   1.092   0.142   2.657  1.3255 -0.3966  0.9065
 9667SOL     OW34171   6.264   0.088   2.065  0.2038 -0.3534 -0.0803
 9667SOL    HW134172   6.325   0.166   2.054 -2.4187  1.7959  0.0236
 9667SOL    HW234173   6.313   0.003   2.046  2.6481  1.4326 -1.9180
 9668SOL     OW34174   8.780   5.676   0.453  0.3839 -0.7192 -0.5765
 9668SOL    HW134175   8.786   5.768   0.493 -2.4034 -1.0399  0.6693
 9668SOL    HW234176   8.833   5.612   0.508  0.6424 -0.2296 -0.2538
 9669SOL     OW34177   0.899   0.190   1.976  0.4225 -0.1806 -0.2827
 9669SOL    HW134178   0.913   0.118   2.044  1.0390  0.6104  0.4405
 9669SOL    HW234179   0.902   0.279   2.021 -1.1864  0.2703 -1.0381
 9670SOL     OW34180   7.414   7.037   4.245 -0.1976  0.1946 -0.2768
 9670SOL    HW134181   7.334   7.006   4.194 -0.2094  0.5682 -0.4892
 9670SOL    HW234182   7.484   6.965   4.244 -0.2234  0.1738 -0.7682
 9671SOL     OW34183   7.820   0.482   0.143  0.2355 -0.6694 -0.4390
 9671SOL    HW134184   7.724   0.455   0.150 -0.4053  0.8302 -2.8090
 9671SOL    HW234185   7.844   0.495   0.047  3.2506 -2.4219  0.0205
 9673SOL     OW34186   1.964   8.870   3.237  0.0818 -0.2996 -0.0557
 9673SOL    HW134187   1.969   8.875   3.137  2.3634 -0.3212  0.0208
 9673SOL    HW234188   1.869   8.856   3.266 -0.7832  1.0646 -2.1527
 9674SOL     OW34189   2.928   0.547   1.703  0.5206 -0.2045  0.3437
 9674SOL    HW134190   2.978   0.461   1.707 -1.6255 -1.5504 -0.4128
 9674SOL    HW234191   2.946   0.601   1.785  3.5699 -0.3986 -0.1580
 9675SOL     OW34192   0.022   4.212   2.158 -0.3052 -0.0813  0.5452
 9675SOL    HW134193  -0.077   4.200   2.166 -0.2092 -1.7164 -0.4286
 9675SOL    HW234194   0.067   4.124   2.171  0.7509 -0.1074 -2.8246
 9676SOL     OW34195   3.663   1.421   4.214 -0.1902  0.2636  0.1229
 9676SOL    HW134196   3.609   1.505   4.210  0.1713  0.4651 -0.7323
 9676SOL    HW234197   3.631   1.364   4.290 -1.0302  0.7671  0.1568
 9677SOL     OW34198   8.329   2.666   4.368 -0.1558  0.3193  0.4448
 9677SOL    HW134199   8.379   2.665   4.455  1.9167  0.0069 -0.7187
 9677SOL    HW234200   8.249   2.607   4.375  1.6553 -2.1143  1.1946
 9678SOL     OW34201   2.052   5.028   3.571 -0.4852  0.1074  0.2516
 9678SOL    HW134202   2.105   5.100   3.615  0.3146 -0.4978  0.2750
 9678SOL    HW234203   2.027   5.056   3.478  2.0838 -0.6662 -0.6951
 9680SOL     OW34204   4.616   8.487   3.111 -0.0985 -0.0001  0.2878
 9680SOL    HW134205   4.674   8.515   3.188 -1.1654 -1.1440  1.5172
 9680SOL    HW234206   4.645   8.536   3.028  1.4390  0.7965  1.2778
 9681SOL     OW34207   5.225   6.889   3.131  0.0175 -0.1223  0.5176
 9681SOL    HW134208   5.139   6.849   3.162 -0.9888  0.7675 -1.0967
 9681SOL    HW234209   5.213   6.986   3.113  0.9788 -0.2665 -1.0455
 9682SOL     OW34210   4.136   5.588   1.848 -0.0208  0.1511  0.2849
 9682SOL    HW134211   4.083   5.657   1.798  0.1385  0.7944  0.9769
 9682SOL    HW234212   4.083   5.504   1.855 -0.5165  0.4380  0.0379
 9683SOL     OW34213   3.312   7.017   1.333  0.7211  0.0319 -0.1791
 9683SOL    HW134214   3.250   6.938   1.341  1.2241 -0.3686 -0.2326
 9683SOL    HW234215   3.261   7.101   1.352  0.1615 -0.2983 -0.2041
 9684SOL     OW34216   4.746   2.286   0.858 -0.4256  0.2717 -0.6258
 9684SOL    HW134217   4.828   2.302   0.802 -0.4820 -0.8256 -1.0277
 9684SOL    HW234218   4.759   2.330   0.948  1.1497 -0.9803 -0.2114
 9685SOL     OW34219   8.004   3.711   1.152  0.2178  0.0464  0.4924
 9685SOL    HW134220   8.062   3.701   1.071  1.1366 -1.3917  1.2922
 9685SOL    HW234221   7.912   3.737   1.124  0.7826  0.5357 -0.9417
 9686SOL     OW34222   0.521   5.750   3.188  0.3225 -0.1672 -0.6230
 9686SOL    HW134223   0.430   5.712   3.207  0.7479 -0.3285  1.2187
 9686SOL    HW234224   0.513   5.849   3.175 -0.0678 -0.1260 -0.0850
 9687SOL     OW34225   1.834   7.369   2.471  0.3083 -0.3913  0.1350
 9687SOL    HW134226   1.842   7.458   2.517 -1.2392 -0.9062  1.4421
 9687SOL    HW234227   1.825   7.297   2.539 -0.7976 -1.3075 -0.9583
 9688SOL     OW34228   1.199   6.469   2.430 -0.1716  0.4305 -0.3419
 9688SOL    HW134229   1.157   6.534   2.368 -0.8209  0.4746  0.1393
 9688SOL    HW234230   1.148   6.383   2.429 -0.2823  0.4828  0.2382
 9689SOL     OW34231   0.208   0.524   3.683 -0.1630 -0.1369  0.3934
 9689SOL    HW134232   0.273   0.512   3.608 -0.5039 -1.1343  0.2483
 9689SOL    HW234233   0.120   0.555   3.647 -0.8182 -2.1513  0.1630
 9691SOL     OW34234   4.935   7.143   2.101 -0.6406  0.7093 -0.5450
 9691SOL    HW134235   4.891   7.194   2.174  2.0776 -0.8268  2.2795
 9691SOL    HW234236   4.904   7.048   2.103 -0.0841  0.5142 -0.9400
 9692SOL     OW34237   9.585   0.590   0.864 -0.7478 -0.0726 -0.2252
 9692SOL    HW134238   9.544   0.681   0.870  0.1425  0.3098  0.0702
 9692SOL    HW234239   9.526   0.531   0.809 -2.2195  0.1764  1.0556
 9693SOL     OW34240   7.876   2.126   1.116 -0.5917 -0.0732 -0.0257
 9693SOL    HW134241   7.785   2.138   1.075 -0.5450 -0.3149 -0.1988
 9693SOL    HW234242   7.866   2.103   1.213 -0.7564 -1.4144 -0.3425
 9694SOL     OW34243   6.753   6.975   2.604  0.5985  0.0306  0.3016
 9694SOL    HW134244   6.767   6.892   2.551 -2.2743 -1.5152  1.8595
 9694SOL    HW234245   6.824   6.982   2.674  1.7216 -0.3203 -0.7936
 9695SOL     OW34246   3.340   3.549   1.849 -0.2665 -0.0422  0.3861
 9695SOL    HW134247   3.431   3.523   1.818 -0.6106 -1.8934  0.9028
 9695SOL    HW234248   3.292   3.469   1.886 -1.5384  1.2179  1.5390
 9696SOL     OW34249   7.765   9.782   1.097  0.4421  0.4956 -0.6416
 9696SOL    HW134250   7.822   9.825   1.167 -0.7788  0.7715  0.2033
 9696SOL    HW234251   7.796   9.688   1.082  0.7883  0.4626  0.2180
 9697SOL     OW34252   7.193   8.413   4.360 -0.0054 -0.0079 -0.1758
 9697SOL    HW134253   7.159   8.346   4.294  0.3327 -0.3329 -0.0294
 9697SOL    HW234254   7.117   8.463   4.400 -0.1373  1.1486 -1.8035
 9699SOL     OW34255   4.374   6.108   1.791 -0.1152 -0.1719  0.6705
 9699SOL    HW134256   4.438   6.036   1.816 -0.3428 -0.4144  0.5575
 9699SOL    HW234257   4.404   6.151   1.706 -0.5343 -0.8307  0.1800
 9700SOL     OW34258   0.326   1.782   4.039 -0.2198 -0.3406  0.2383
 9700SOL    HW134259   0.358   1.719   4.110 -0.6541  0.7217  1.4034
 9700SOL    HW234260   0.405   1.822   3.993  0.0733 -0.7313  0.3948
 9701SOL     OW34261   3.679   3.661   3.354 -0.4761  0.3352  0.2113
 9701SOL    HW134262   3.610   3.691   3.288 -1.3551 -0.2859  0.8338
 9701SOL    HW234263   3.667   3.711   3.440  0.0906  0.4944  0.1994
 9703SOL     OW34264   2.208   1.729   1.370  0.1468 -0.0489 -0.7663
 9703SOL    HW134265   2.243   1.787   1.444 -0.4641  1.1120 -1.3599
 9703SOL    HW234266   2.284   1.680   1.328  0.4113 -1.2707  1.0669
 9704SOL     OW34267   8.286   8.143   2.560  0.5713  0.0862  0.2165
 9704SOL    HW134268   8.321   8.123   2.468 -0.6041  0.2301 -0.2749
 9704SOL    HW234269   8.323   8.231   2.590  1.2087 -0.1064  0.0136
 9705SOL     OW34270   6.843   0.628   1.748 -0.0096  0.1703 -0.1111
 9705SOL    HW134271   6.800   0.587   1.828 -0.1020 -0.6868 -0.5932
 9705SOL    HW234272   6.835   0.566   1.670  1.2457  0.4147 -0.4500
 9706SOL     OW34273   6.202   8.874   2.134 -0.0859 -0.0583  0.1946
 9706SOL    HW134274   6.273   8.936   2.168 -1.6154  0.9652  1.6585
 9706SOL    HW234275   6.233   8.779   2.140  1.1246  0.3812  0.8522
 9707SOL     OW34276   9.682   5.933   2.484  0.6879 -0.8996  0.1712
 9707SOL    HW134277   9.658   6.022   2.524  1.3895 -1.6043  2.1861
 9707SOL    HW234278   9.760   5.894   2.532 -0.3998 -3.2045  0.1322
 9708SOL     OW34279   0.967   8.948   1.968 -0.5288  0.0860 -0.2917
 9708SOL    HW134280   0.960   8.860   2.015 -3.4414 -0.2655 -1.3107
 9708SOL    HW234281   0.991   8.933   1.872 -0.2129  0.4679 -0.2757
 9711SOL     OW34282   1.924   7.304   2.222  0.1130  0.0406 -0.3308
 9711SOL    HW134283   1.904   7.318   2.319  2.1979 -0.4089  0.1910
 9711SOL    HW234284   1.906   7.388   2.171  0.8757  0.8856  0.7692
 9712SOL     OW34285   1.771   7.579   0.950 -0.5384  0.2405 -0.3493
 9712SOL    HW134286   1.725   7.596   1.038  0.7168  0.6455  0.2505
 9712SOL    HW234287   1.739   7.646   0.883 -3.4840 -1.7078 -0.9834
 9714SOL     OW34288   6.062   8.309   1.794 -0.6968 -0.6406  0.4523
 9714SOL    HW134289   6.030   8.354   1.878  1.5470 -1.1715  1.6364
 9714SOL    HW234290   6.112   8.226   1.819  0.1989 -0.6756 -1.4274
 9715SOL     OW34291   2.223   1.882   0.789  1.1924  0.3510  0.0373
 9715SOL    HW134292   2.320   1.860   0.802  1.3479 -0.1201 -1.7530
 9715SOL    HW234293   2.181   1.814   0.729 -0.1299  0.8283  0.4037
 9717SOL     OW34294   5.593   7.711   2.038 -0.0657  0.0744  0.0742
 9717SOL    HW134295   5.693   7.704   2.036  0.0410  1.3961  0.3905
 9717SOL    HW234296   5.559   7.669   2.122  0.1988 -0.6224 -0.1635
 9718SOL     OW34297   8.673   9.075   3.252 -0.1372 -0.1787 -0.2007
 9718SOL    HW134298   8.627   8.987   3.246 -0.1458 -0.1243 -1.0177
 9718SOL    HW234299   8.753   9.067   3.311 -0.4506 -0.5930  0.1734
 9719SOL     OW34300   9.894   2.924   2.693  0.1335 -0.0507  0.4972
 9719SOL    HW134301   9.822   2.950   2.629 -1.7206 -1.4112  1.9717
 9719SOL    HW234302   9.922   2.830   2.675  1.7230  0.5341 -0.2009
 9720SOL     OW34303   9.056   0.089   3.252 -0.2033  0.1084  0.0037
 9720SOL    HW134304   9.134   0.060   3.307 -1.4176 -0.3842  1.4843
 9720SOL    HW234305   9.089   0.136   3.170  1.7057 -1.9858 -0.4819
 9721SOL     OW34306   3.451   6.831   1.190  0.0081 -0.3683  0.6436
 9721SOL    HW134307   3.444   6.801   1.095  3.5133  0.0588  0.1853
 9721SOL    HW234308   3.437   6.929   1.196 -0.0144 -0.3654  0.5276
 9722SOL     OW34309   3.611   7.569   0.243 -0.4862 -0.6273  0.2059
 9722SOL    HW134310   3.636   7.638   0.175 -1.3726  0.8474  1.3317
 9722SOL    HW234311   3.684   7.562   0.311  0.0279 -1.5004 -0.4246
 9723SOL     OW34312   8.029   2.535   1.341  0.7836 -0.0083  0.0262
 9723SOL    HW134313   7.982   2.472   1.279  0.3348  1.2483 -0.9319
 9723SOL    HW234314   8.062   2.485   1.421  0.0901 -1.3798 -0.5344
 9725SOL     OW34315   4.148   9.487   2.795  0.3063 -0.6252  0.1548
 9725SOL    HW134316   4.102   9.499   2.883 -1.0543 -1.3385 -0.4337
 9725SOL    HW234317   4.187   9.574   2.765  1.0365 -0.4433  1.5945
 9726SOL     OW34318   0.818   2.546   2.133 -0.3386 -0.2020 -0.0376
 9726SOL    HW134319   0.854   2.513   2.221 -3.5323 -2.8342  0.3776
 9726SOL    HW234320   0.737   2.602   2.150  0.7889  1.8259 -1.1973
 9727SOL     OW34321   3.684   9.300   2.473  0.3736 -0.2911 -0.3137
 9727SOL    HW134322   3.758   9.313   2.540  0.0983  2.8304 -0.5649
 9727SOL    HW234323   3.720   9.313   2.381  0.2527 -2.3800 -0.6914
 9728SOL     OW34324   9.513   3.148   1.376  0.1329 -0.5854 -0.0611
 9728SOL    HW134325   9.589   3.213   1.376  0.2853 -0.7551 -0.8811
 9728SOL    HW234326   9.503   3.108   1.284 -1.0368 -0.4631  0.0030
 9730SOL     OW34327   1.091   6.207   0.048 -0.2599 -0.0317  0.4855
 9730SOL    HW134328   1.176   6.207  -0.005  0.1431 -1.9109  1.0825
 9730SOL    HW234329   1.024   6.148   0.003 -0.8164  0.4346  0.6936
 9731SOL     OW34330   3.126   5.743   3.355 -0.4433  0.0237  0.2889
 9731SOL    HW134331   3.186   5.684   3.410  1.5627  1.4360 -0.3460
 9731SOL    HW234332   3.161   5.751   3.262 -1.5133  1.0250 -0.0551
 9733SOL     OW34333   1.645   4.547   1.712 -0.0561  0.0179 -0.0549
 9733SOL    HW134334   1.564   4.568   1.657 -0.7438 -0.4400  0.7699
 9733SOL    HW234335   1.726   4.590   1.671 -0.6355  0.0516 -1.1635
 9735SOL     OW34336   0.549   7.367   2.986 -0.3465  0.7337  0.3505
 9735SOL    HW134337   0.591   7.280   3.010 -1.2441  0.8097  2.2116
 9735SOL    HW234338   0.517   7.414   3.068 -1.1677  2.1722 -0.7478
 9736SOL     OW34339   2.862   8.827   0.862 -0.1531 -0.3570 -0.7076
 9736SOL    HW134340   2.829   8.852   0.771 -0.5164 -0.0005 -0.4798
 9736SOL    HW234341   2.792   8.849   0.930  0.5107  0.3195 -0.2281
 9737SOL     OW34342   0.090   8.371   3.447 -0.1411 -0.3761  0.2372
 9737SOL    HW134343   0.002   8.398   3.485  0.3943  2.1361 -0.2166
 9737SOL    HW234344   0.161   8.434   3.480  1.1720 -1.2664 -0.8338
 9738SOL     OW34345   4.252   8.060   3.124  0.7641  0.9339 -0.3953
 9738SOL    HW134346   4.311   8.116   3.182 -0.0263  1.3584  0.0103
 9738SOL    HW234347   4.258   8.091   3.029  2.1684  0.1507 -0.5742
 9739SOL     OW34348   3.792   3.812   2.236 -0.5332  0.4399  0.6018
 9739SOL    HW134349   3.821   3.774   2.324 -0.0138  1.4268  0.8659
 9739SOL    HW234350   3.827   3.905   2.227 -3.1014  1.4337  0.6193
 9741SOL     OW34351   0.129   0.966   2.520  0.0656 -0.6689  0.1397
 9741SOL    HW134352   0.182   0.887   2.552  0.1223 -0.3372  0.8687
 9741SOL    HW234353   0.190   1.042   2.499 -0.1261 -0.2248  1.1562
 9742SOL     OW34354   2.649   8.861   1.024  0.7074  0.1910  0.1726
 9742SOL    HW134355   2.643   8.956   1.054  1.4324  0.5360 -0.7588
 9742SOL    HW234356   2.562   8.833   0.984  0.4893  0.4549  0.4595
 9743SOL     OW34357   3.957   4.971   1.232  0.2610 -0.0848  0.3874
 9743SOL    HW134358   3.906   5.052   1.202 -1.2563 -1.3030 -0.4385
 9743SOL    HW234359   3.994   4.925   1.151 -0.2931 -1.1092  0.7160
 9744SOL     OW34360   8.779   9.973   0.807 -0.2627 -0.2093  0.0344
 9744SOL    HW134361   8.840  10.053   0.801 -1.1823  0.6849  1.9944
 9744SOL    HW234362   8.757   9.955   0.903  0.2544 -3.1117 -0.3451
 9745SOL     OW34363   3.765   1.268   2.282 -0.6265 -0.1747 -0.1911
 9745SOL    HW134364   3.834   1.340   2.289 -1.1283  0.2423  0.6221
 9745SOL    HW234365   3.727   1.267   2.190 -0.7896  0.7736 -0.1426
 9746SOL     OW34366   2.573   4.103   2.545 -0.1612  0.0360  0.0945
 9746SOL    HW134367   2.596   4.014   2.584  0.4518 -0.2810 -0.9563
 9746SOL    HW234368   2.493   4.140   2.590 -1.0771 -1.5480 -0.1940
 9748SOL     OW34369   2.541   8.935   3.425  0.0798 -0.3854  0.5276
 9748SOL    HW134370   2.474   8.950   3.352  1.1778 -0.7616 -0.5791
 9748SOL    HW234371   2.495   8.900   3.506 -1.2402  0.5553  0.1959
 9749SOL     OW34372   3.024   6.660   2.886 -0.4760  0.1089 -0.3382
 9749SOL    HW134373   3.068   6.583   2.840  0.3430  0.4115 -0.0632
 9749SOL    HW234374   2.978   6.718   2.818 -1.6282 -0.9493 -0.4881
 9750SOL     OW34375   2.398   1.915   0.376 -0.3279  0.2176  0.1732
 9750SOL    HW134376   2.482   1.921   0.429 -0.2392 -0.1860  0.0790
 9750SOL    HW234377   2.419   1.888   0.282 -0.6432 -0.7678  0.3806
 9751SOL     OW34378   2.722   8.370   3.717  0.1085 -0.3338  0.2945
 9751SOL    HW134379   2.693   8.324   3.632 -0.8854 -1.7555  1.3770
 9751SOL    HW234380   2.680   8.460   3.722 -0.2165 -0.4370 -0.5045
 9752SOL     OW34381   1.873   7.048   2.355 -0.0476  0.3069 -0.1053
 9752SOL    HW134382   1.882   7.135   2.307  0.4318  0.6059  0.5082
 9752SOL    HW234383   1.902   7.060   2.450  0.8593 -0.7273 -0.2405
 9754SOL     OW34384   1.325   6.792   1.967 -0.7828  0.2716  0.0073
 9754SOL    HW134385   1.373   6.872   1.930  1.0928  0.9713  3.7179
 9754SOL    HW234386   1.262   6.821   2.039 -1.1488 -1.4419  0.4046
 9755SOL     OW34387   9.932   1.422   1.696 -0.1383 -0.3486  0.0270
 9755SOL    HW134388   9.920   1.366   1.614  0.0472 -0.8055  0.3059
 9755SOL    HW234389  10.021   1.401   1.737 -0.8562 -1.2081  1.1683
 9756SOL     OW34390   4.374   9.683   2.698 -0.0064 -0.9870  0.0938
 9756SOL    HW134391   4.346   9.636   2.614  0.6583 -0.8488 -0.2059
 9756SOL    HW234392   4.359   9.782   2.687 -1.4557 -1.1168  0.7437
 9757SOL     OW34393   2.607   2.479   3.136  0.1954  0.0297 -0.1993
 9757SOL    HW134394   2.704   2.472   3.159  0.1784 -1.5325 -0.5120
 9757SOL    HW234395   2.552   2.464   3.218  0.2220  2.5667  0.3090
 9758SOL     OW34396   8.307   6.229   0.934  0.4238  0.2438  0.1297
 9758SOL    HW134397   8.406   6.214   0.926  0.5378 -0.5632  2.5483
 9758SOL    HW234398   8.262   6.199   0.851  2.1812  0.2968 -0.8747
 9759SOL     OW34399   8.199   9.771   2.437 -0.8477  0.3168  0.1083
 9759SOL    HW134400   8.200   9.869   2.455 -1.0939  0.4115 -0.3856
 9759SOL    HW234401   8.189   9.755   2.339  0.0228 -0.1999  0.0978
 9760SOL     OW34402   6.401   8.417   3.784  0.4551 -0.0670 -0.0537
 9760SOL    HW134403   6.363   8.468   3.861  2.4932  0.3304  0.7198
 9760SOL    HW234404   6.395   8.472   3.701 -1.3099 -0.3102 -0.1145
 9761SOL     OW34405   6.684   1.535   3.620  0.5464 -0.1174  0.2431
 9761SOL    HW134406   6.669   1.585   3.534 -0.3423 -1.7209 -0.5581
 9761SOL    HW234407   6.599   1.533   3.672  0.7642 -0.2052  0.5937
 9762SOL     OW34408   0.580   0.574   0.864 -0.3686  0.0286  0.1782
 9762SOL    HW134409   0.656   0.523   0.822 -1.7004 -1.2346 -0.7269
 9762SOL    HW234410   0.494   0.527   0.844 -1.3564  1.2885  1.4713
 9763SOL     OW34411   1.673   3.851   1.126  0.2281 -0.0640  0.3887
 9763SOL    HW134412   1.615   3.829   1.204 -1.4167  3.1500  0.1492
 9763SOL    HW234413   1.620   3.842   1.042  0.9662 -0.0281 -0.0889
 9764SOL     OW34414   2.391   6.893   2.591  0.2461  0.5558  0.0990
 9764SOL    HW134415   2.292   6.874   2.595  0.3440  0.2696  2.3119
 9764SOL    HW234416   2.434   6.831   2.527 -0.6378 -1.2704  1.2099
 9765SOL     OW34417   7.083   7.257   1.918  0.1237 -0.0767  0.0892
 9765SOL    HW134418   6.987   7.286   1.916  0.2126  0.2195  0.0500
 9765SOL    HW234419   7.127   7.279   1.831  0.5073  0.7809  0.4896
 9767SOL     OW34420   3.831   9.611   0.737  0.5661 -0.1842 -0.2269
 9767SOL    HW134421   3.795   9.583   0.648  0.1102 -0.2349 -0.0242
 9767SOL    HW234422   3.840   9.710   0.739 -0.3637 -0.1018  0.0267
 9771SOL     OW34423   3.079   6.767   0.934 -0.0942  0.4624  0.3877
 9771SOL    HW134424   3.064   6.773   1.033  1.4617  0.9568  0.6182
 9771SOL    HW234425   3.065   6.673   0.905  0.0517  0.1774  1.2037
 9772SOL     OW34426   8.700   1.140   0.220  0.0149  0.1485  0.3333
 9772SOL    HW134427   8.601   1.126   0.228  0.4506 -2.2888  2.0211
 9772SOL    HW234428   8.738   1.163   0.310  0.8779  2.0435 -0.4830
 9773SOL     OW34429   2.596   7.915   3.782 -0.0237  0.1014 -0.3976
 9773SOL    HW134430   2.562   7.969   3.859  1.7775  1.1122 -0.2634
 9773SOL    HW234431   2.611   7.820   3.811 -2.1435 -0.2218 -0.3220
 9775SOL     OW34432   0.019   1.369   0.127  0.0794  0.1097  0.2764
 9775SOL    HW134433   0.022   1.402   0.033 -1.7819  0.8796  0.4639
 9775SOL    HW234434   0.065   1.435   0.187  0.7038 -0.0688 -0.0028
 9776SOL     OW34435   8.499   3.913   1.548  0.1716  0.0580  0.1425
 9776SOL    HW134436   8.466   3.871   1.632 -1.3964 -0.1222 -0.5496
 9776SOL    HW234437   8.498   4.013   1.557  2.1268  0.0239  1.1127
 9777SOL     OW34438   9.961   2.088   5.638  0.3141 -0.0085  0.0305
 9777SOL    HW134439   9.899   2.063   5.563 -0.4679  0.3105  0.5689
 9777SOL    HW234440  10.023   2.160   5.607  0.2779 -0.1763 -0.4414
 9778SOL     OW34441   0.157   2.149   4.142  0.0870 -0.1933  0.2972
 9778SOL    HW134442   0.164   2.072   4.206 -3.0857  0.8200  1.9285
 9778SOL    HW234443   0.200   2.229   4.183 -0.0115 -0.1104  0.2371
 9779SOL     OW34444   0.323   3.112   2.735 -0.2031  0.6903 -0.7342
 9779SOL    HW134445   0.325   3.195   2.679 -2.6735  0.1299 -1.7080
 9779SOL    HW234446   0.308   3.033   2.677 -1.2070 -0.0729  0.5408
 9780SOL     OW34447   5.143   3.668   0.770 -0.3849 -0.7196  0.1090
 9780SOL    HW134448   5.060   3.709   0.808  0.2158 -0.9990  1.7236
 9780SOL    HW234449   5.200   3.739   0.729 -0.1315 -0.1583  1.4271
 9782SOL     OW34450   5.479   7.682   1.623  0.0159  0.7066  0.3446
 9782SOL    HW134451   5.496   7.771   1.667  0.9537  0.7265 -0.0404
 9782SOL    HW234452   5.478   7.610   1.693 -0.5602  0.9892  0.6356
 9783SOL     OW34453   8.718   6.980   1.751 -0.1781  0.6412 -0.2243
 9783SOL    HW134454   8.703   6.917   1.827 -0.0687  0.7464 -0.1157
 9783SOL    HW234455   8.795   6.948   1.696 -0.1607  0.6469 -0.2036
 9784SOL     OW34456   5.022   8.194   4.194 -0.1060 -0.0845 -0.1011
 9784SOL    HW134457   4.965   8.269   4.225  0.6030 -0.1117  1.3235
 9784SOL    HW234458   5.088   8.170   4.265  1.1564 -0.5845 -1.3859
 9785SOL     OW34459   7.642   3.297   4.289 -0.0857 -0.2520 -0.3205
 9785SOL    HW134460   7.714   3.297   4.358 -1.9280  0.0985  1.6424
 9785SOL    HW234461   7.656   3.374   4.226  0.5929  0.5215  0.7603
 9787SOL     OW34462   3.404   5.123   2.459 -0.1012  0.8041 -0.7753
 9787SOL    HW134463   3.308   5.149   2.450 -1.0488 -2.5059 -0.5830
 9787SOL    HW234464   3.429   5.122   2.556 -0.7563 -1.3084 -0.6102
 9788SOL     OW34465   0.189   4.574   1.956 -0.3255 -0.3902 -0.0408
 9788SOL    HW134466   0.219   4.658   2.002  0.3803 -1.2197  1.0258
 9788SOL    HW234467   0.269   4.528   1.917 -0.9339  0.4347 -2.3657
 9789SOL     OW34468   2.023   6.862   2.211  0.1172 -0.1033 -0.3024
 9789SOL    HW134469   1.962   6.834   2.137 -0.6068  1.5509 -0.3751
 9789SOL    HW234470   1.972   6.918   2.277  1.5004  1.2046 -0.2932
 9792SOL     OW34471   0.459   2.640   0.495 -0.2489 -0.2299 -0.6412
 9792SOL    HW134472   0.531   2.698   0.534  1.0936 -0.1014 -3.1606
 9792SOL    HW234473   0.378   2.696   0.478  0.2468  0.4228 -0.9195
 9794SOL     OW34474   7.870   3.024   1.695  0.6119  0.0077  0.7259
 9794SOL    HW134475   7.872   2.986   1.788  0.6860 -1.6101  0.0776
 9794SOL    HW234476   7.964   3.041   1.664  0.6363 -0.4305  0.5573
 9797SOL     OW34477   2.172   9.919   3.755 -0.0747  0.2213 -0.1893
 9797SOL    HW134478   2.072   9.926   3.758 -0.0379  0.9772 -0.6100
 9797SOL    HW234479   2.207   9.975   3.680  0.7121  0.4490  0.3436
 9798SOL     OW34480   5.117   7.954   2.712 -0.7818  0.4564  0.8201
 9798SOL    HW134481   5.119   7.857   2.687 -1.0438  1.1194 -1.9051
 9798SOL    HW234482   5.208   7.993   2.702 -1.1988  1.0881 -0.6609
 9799SOL     OW34483   9.597   7.323   3.565  0.6107  0.1907  0.9800
 9799SOL    HW134484   9.591   7.389   3.491  1.0147 -1.0285 -0.1550
 9799SOL    HW234485   9.665   7.354   3.632  0.9243  0.8401  0.3686
 9800SOL     OW34486   5.853   8.557   2.906 -0.4369 -0.0902  0.3958
 9800SOL    HW134487   5.886   8.643   2.946 -0.3454 -0.7426  1.7554
 9800SOL    HW234488   5.931   8.501   2.880 -0.4917 -0.0046  0.0515
 9801SOL     OW34489   8.870   9.824   4.026  0.2302  0.0246  0.0066
 9801SOL    HW134490   8.891   9.888   4.100 -3.3635  1.4862 -0.1691
 9801SOL    HW234491   8.854   9.733   4.064  0.7222  0.2419  0.7435
 9802SOL     OW34492   5.128   1.290   1.835  0.2044  0.3261 -0.8208
 9802SOL    HW134493   5.088   1.378   1.860  1.2155  0.4517  0.4095
 9802SOL    HW234494   5.070   1.245   1.767 -1.3785  1.0242  0.0372
 9803SOL     OW34495   7.811   5.056   3.978  0.4047  0.2753 -0.5240
 9803SOL    HW134496   7.849   4.966   3.998 -1.8418 -0.4613  0.5412
 9803SOL    HW234497   7.825   5.117   4.056 -2.2105 -0.5547  0.6322
 9804SOL     OW34498   8.949   1.812   4.366  0.0951 -0.7298 -0.0609
 9804SOL    HW134499   8.954   1.814   4.266  0.2556  0.7809 -0.0415
 9804SOL    HW234500   8.998   1.732   4.401  2.1738  0.0653 -1.0790
 9805SOL     OW34501   3.818   2.876   0.539  0.3495  0.2371 -0.4407
 9805SOL    HW134502   3.858   2.928   0.614  0.1359 -0.9346  0.4909
 9805SOL    HW234503   3.750   2.933   0.492  2.3122  1.8823 -1.4018
 9806SOL     OW34504   1.498   2.033   3.876  0.2621 -0.2003  0.3738
 9806SOL    HW134505   1.554   1.960   3.916  0.3298 -0.0127  0.6222
 9806SOL    HW234506   1.497   2.023   3.777 -0.1183 -0.8265  0.4361
 9807SOL     OW34507   9.317   9.404   2.733 -0.0470 -0.0051 -0.3592
 9807SOL    HW134508   9.399   9.373   2.687  1.0439  0.6827  1.0722
 9807SOL    HW234509   9.298   9.345   2.812  0.4426  1.2644  0.7219
 9808SOL     OW34510   5.748   8.822   2.323 -0.0230  0.4148  0.6139
 9808SOL    HW134511   5.747   8.748   2.256  0.3542 -0.3093  1.3966
 9808SOL    HW234512   5.655   8.836   2.358 -0.1942  0.6949  0.0531
 9809SOL     OW34513   1.927   9.807   3.134 -0.2646  0.2727 -0.4010
 9809SOL    HW134514   1.938   9.887   3.192  0.1217 -0.7207  0.9138
 9809SOL    HW234515   1.959   9.828   3.042  1.1963  1.1697  0.2990
 9810SOL     OW34516   8.740   0.584   2.278 -0.2025  0.3715 -0.2439
 9810SOL    HW134517   8.784   0.611   2.363 -0.7963  2.0812 -0.4646
 9810SOL    HW234518   8.678   0.508   2.295 -1.1743  1.4350  1.0918
 9811SOL     OW34519   7.713   3.936   0.376  0.1028 -0.0671 -0.8270
 9811SOL    HW134520   7.786   3.963   0.314 -0.3504 -0.5465 -1.5773
 9811SOL    HW234521   7.636   3.901   0.323  0.0067 -1.1939  0.0352
 9813SOL     OW34522   2.037   1.065   1.239 -0.0233  1.0141  0.7502
 9813SOL    HW134523   1.961   1.038   1.298 -1.6038 -1.4300 -2.2081
 9813SOL    HW234524   2.030   1.162   1.216 -1.0343  1.2902  2.1678
 9814SOL     OW34525   0.909   0.389   2.732  0.4051  0.7735  0.3626
 9814SOL    HW134526   0.832   0.403   2.669 -0.2898  1.4701  1.3498
 9814SOL    HW234527   0.896   0.304   2.783 -0.4118  1.5801  1.5134
 9815SOL     OW34528   0.458   6.278   2.787  0.3376  0.3043 -0.6499
 9815SOL    HW134529   0.478   6.188   2.826  0.7854  1.0024  0.7659
 9815SOL    HW234530   0.370   6.275   2.741 -0.8291 -0.2189  1.5527
 9817SOL     OW34531   3.622   2.975   0.132 -0.0404  0.2223 -0.2411
 9817SOL    HW134532   3.597   2.946   0.225 -0.7464 -0.0082 -0.4968
 9817SOL    HW234533   3.549   3.032   0.095  0.1025  0.0605 -0.7676
 9818SOL     OW34534   1.133   2.956   4.224 -0.6459 -0.3224 -0.3835
 9818SOL    HW134535   1.212   2.913   4.182  0.8940  0.5875  1.4863
 9818SOL    HW234536   1.128   3.052   4.196 -0.4081 -0.0744  0.4031
 9819SOL     OW34537   6.175   9.206   2.404 -0.3229 -0.2131  0.4893
 9819SOL    HW134538   6.275   9.199   2.407 -0.4261 -2.5082 -0.4018
 9819SOL    HW234539   6.138   9.181   2.494 -0.1400 -0.2421  0.5575
 9820SOL     OW34540   8.640   8.990   1.546 -0.0129 -0.2824  0.0086
 9820SOL    HW134541   8.651   8.995   1.646  1.4993  0.5323 -0.1754
 9820SOL    HW234542   8.685   8.908   1.512  2.4291  1.1428 -0.3398
 9821SOL     OW34543   1.864   5.531   0.529 -0.1133 -0.3389 -0.4945
 9821SOL    HW134544   1.924   5.544   0.449 -0.0231 -0.1569 -0.3976
 9821SOL    HW234545   1.905   5.464   0.591  2.4271  3.2662  1.9534
 9822SOL     OW34546   0.740   6.095   1.471  0.1179  0.3595  0.0723
 9822SOL    HW134547   0.818   6.086   1.409  0.3356  0.8798  0.2635
 9822SOL    HW234548   0.742   6.021   1.538 -0.0216 -0.1066 -0.4387
 9823SOL     OW34549   3.743   7.413   2.676  0.2104  0.0510  0.8655
 9823SOL    HW134550   3.738   7.461   2.589  0.4258 -0.0618  0.7902
 9823SOL    HW234551   3.736   7.479   2.751 -2.4977 -0.1057  0.7791
 9824SOL     OW34552   2.824   9.490   2.762  0.4148 -0.8090 -0.0400
 9824SOL    HW134553   2.730   9.488   2.726  0.2929 -1.4482  0.3111
 9824SOL    HW234554   2.827   9.442   2.849  1.2841 -1.7160 -0.5569
 9825SOL     OW34555   1.193   7.406   1.168  0.1113 -0.3919  0.5109
 9825SOL    HW134556   1.240   7.394   1.080  1.1303  0.0750  0.9871
 9825SOL    HW234557   1.231   7.486   1.215  0.0501 -1.0516  1.6983
 9826SOL     OW34558   9.727   0.538   1.648 -0.2131 -0.0909  0.0313
 9826SOL    HW134559   9.702   0.629   1.616  0.5365  0.5303  1.2059
 9826SOL    HW234560   9.822   0.519   1.626 -0.4048 -0.6468 -0.3289
 9828SOL     OW34561   3.994   4.600   3.831 -0.1285  0.4753  0.1397
 9828SOL    HW134562   3.980   4.607   3.733  0.1326 -0.3364  0.0479
 9828SOL    HW234563   3.956   4.682   3.876  0.2177  1.0866 -0.6761
 9829SOL     OW34564   8.456   4.213   0.955 -0.1513 -0.0860  0.0428
 9829SOL    HW134565   8.444   4.310   0.932  0.7133  0.3810  1.5736
 9829SOL    HW234566   8.403   4.191   1.037 -1.4200 -1.2408 -1.0511
 9830SOL     OW34567   0.569   8.932   1.952 -0.6864 -0.0769 -0.1365
 9830SOL    HW134568   0.480   8.978   1.943 -0.3570  0.3641 -1.1798
 9830SOL    HW234569   0.642   9.000   1.940 -0.2018 -0.6534 -0.4510
 9831SOL     OW34570   8.139   2.473   4.111  0.8958 -0.5545 -0.0610
 9831SOL    HW134571   8.187   2.411   4.173  0.0923 -2.6948 -1.5157
 9831SOL    HW234572   8.195   2.488   4.029  1.0015  0.5116  0.1998
 9832SOL     OW34573   9.713   3.406   2.082  0.0959  0.6217 -0.1208
 9832SOL    HW134574   9.632   3.355   2.053  1.8156 -0.7755 -2.7085
 9832SOL    HW234575   9.749   3.366   2.167 -0.5830 -0.2488 -0.2333
 9833SOL     OW34576   6.634   8.873   3.028  0.1063 -0.3716  0.2957
 9833SOL    HW134577   6.636   8.818   3.111 -1.5121 -1.1873 -0.1792
 9833SOL    HW234578   6.676   8.820   2.953 -0.2122 -0.4149  0.1485
 9834SOL     OW34579   4.521   6.750   1.946  0.0710 -0.1409 -0.0771
 9834SOL    HW134580   4.493   6.727   1.853 -1.2479 -0.5751  0.4165
 9834SOL    HW234581   4.572   6.836   1.945 -0.4623  0.1728 -1.1185
 9835SOL     OW34582   4.285   8.449   4.075  0.5815  0.1075  0.0352
 9835SOL    HW134583   4.322   8.529   4.026 -1.0169  1.7586  1.4661
 9835SOL    HW234584   4.320   8.449   4.169 -0.0987 -0.4238  0.2850
 9837SOL     OW34585   0.120   1.959   0.601 -0.2013  1.0363 -0.3075
 9837SOL    HW134586   0.191   2.003   0.546  0.6333  1.1591  0.8285
 9837SOL    HW234587   0.145   1.864   0.618  0.3501  1.4266  1.1672
 9838SOL     OW34588   1.151   0.800   0.077  0.2384 -0.5965  0.4064
 9838SOL    HW134589   1.120   0.888   0.042  0.5127 -1.4511 -2.1286
 9838SOL    HW234590   1.082   0.763   0.140  0.0938  1.3530  1.4252
 9839SOL     OW34591   9.459   9.417   3.093  0.3498 -0.1456 -0.1650
 9839SOL    HW134592   9.491   9.390   3.184 -1.3609 -0.3827  0.3809
 9839SOL    HW234593   9.394   9.349   3.059  0.3513  0.3704 -1.2105
 9840SOL     OW34594   2.804   3.139   3.633 -0.4886 -0.5647  0.4309
 9840SOL    HW134595   2.781   3.139   3.536 -0.2041 -0.8399  0.3642
 9840SOL    HW234596   2.771   3.224   3.675 -2.4457 -1.3669  0.5349
 9841SOL     OW34597   1.582   4.394   2.783 -0.2545 -0.1913  0.2091
 9841SOL    HW134598   1.526   4.342   2.847 -1.6811 -0.3240 -1.1096
 9841SOL    HW234599   1.592   4.342   2.698  1.2357  0.1749  0.1495
 9842SOL     OW34600   1.316   4.704   3.544  0.4787 -0.6834 -0.2681
 9842SOL    HW134601   1.401   4.756   3.546  0.7818 -1.1934  1.2942
 9842SOL    HW234602   1.262   4.730   3.464  1.4094  0.7567 -0.4388
 9843SOL     OW34603   9.412   2.303   2.338 -0.4932 -0.6474 -0.5383
 9843SOL    HW134604   9.470   2.325   2.417  0.3103 -0.4373 -1.1845
 9843SOL    HW234605   9.330   2.256   2.370 -1.1564  1.2236  0.6462
 9845SOL     OW34606   4.453   4.089   3.758 -0.0832 -0.3387 -0.5017
 9845SOL    HW134607   4.479   4.030   3.682  0.2548 -1.0750  0.1749
 9845SOL    HW234608   4.359   4.121   3.745  0.5908  1.0079 -2.1203
 9846SOL     OW34609   4.042   3.149   0.408  0.5025  0.1613 -0.9618
 9846SOL    HW134610   3.962   3.164   0.349 -0.5132 -1.3343 -0.0124
 9846SOL    HW234611   4.056   3.229   0.466 -0.4747  0.3397 -0.9600
 9847SOL     OW34612   4.244   0.683   4.219 -0.0654  0.0223  0.0593
 9847SOL    HW134613   4.305   0.722   4.150 -0.1475  1.0845  0.5793
 9847SOL    HW234614   4.267   0.719   4.309 -1.1809  0.1062  0.3246
 9848SOL     OW34615   0.906   6.907   3.463  0.1648 -0.1232  0.5639
 9848SOL    HW134616   0.847   6.832   3.435  2.0981 -1.5476  0.1897
 9848SOL    HW234617   0.906   6.978   3.392  0.0410 -0.7865 -0.1048
 9851SOL     OW34618   3.498   8.766   3.165 -0.2105 -0.4869  0.5803
 9851SOL    HW134619   3.443   8.793   3.244 -2.1316  2.3550 -1.6070
 9851SOL    HW234620   3.439   8.722   3.097  0.4819  1.2681 -1.1906
 9852SOL     OW34621   0.371   8.081   1.301 -0.0450 -0.4136 -0.6167
 9852SOL    HW134622   0.431   8.051   1.375 -1.0498 -1.0973 -0.0571
 9852SOL    HW234623   0.365   8.181   1.301  1.3260 -0.3276 -0.8714
 9853SOL     OW34624   3.597   3.668   4.014 -0.3343 -0.0746  0.6791
 9853SOL    HW134625   3.644   3.728   3.949 -0.7189  0.7280  1.1408
 9853SOL    HW234626   3.542   3.601   3.963 -0.3373  0.3039  0.1768
 9854SOL     OW34627   9.882   0.772   1.850  0.2496 -0.3394 -0.0810
 9854SOL    HW134628   9.966   0.727   1.880 -0.3064 -1.5831 -0.3656
 9854SOL    HW234629   9.811   0.760   1.919  0.1751  0.3285 -0.0414
 9855SOL     OW34630   0.489   6.637   3.537 -0.5005 -0.2202  0.1613
 9855SOL    HW134631   0.392   6.637   3.561 -0.1187 -0.2227  1.7332
 9855SOL    HW234632   0.534   6.557   3.578 -0.1181 -1.0240 -1.7677
 9856SOL     OW34633   8.874   1.446   0.721 -0.5758 -0.4929  0.0773
 9856SOL    HW134634   8.880   1.416   0.816  0.8944 -0.1058  0.1046
 9856SOL    HW234635   8.916   1.378   0.662 -0.1734 -0.0329 -0.1652
 9857SOL     OW34636   3.620   1.754   3.323  0.0642  0.2468  0.2961
 9857SOL    HW134637   3.651   1.675   3.377  1.9102  1.0263  0.4033
 9857SOL    HW234638   3.627   1.837   3.379 -1.4522  0.5555  0.0343
 9858SOL     OW34639   1.808   7.808   3.516 -0.1086 -0.1791 -0.3976
 9858SOL    HW134640   1.890   7.775   3.563  0.6053  0.5806 -1.0746
 9858SOL    HW234641   1.730   7.750   3.538  0.2711  0.0207  1.5099
 9860SOL     OW34642   9.445   6.174   3.339  0.3028  0.4191  0.3615
 9860SOL    HW134643   9.530   6.226   3.351  1.6575 -1.8996  1.1331
 9860SOL    HW234644   9.442   6.137   3.246  0.2254  0.3447  0.3934
 9861SOL     OW34645   0.453   4.027   2.238  0.1234 -0.3235  0.2176
 9861SOL    HW134646   0.407   3.938   2.250  0.6079 -0.4516  1.1522
 9861SOL    HW234647   0.542   4.025   2.283  0.1509  0.6325  0.2144
 9862SOL     OW34648   8.256   4.920   4.429 -0.1036  0.3445  0.0314
 9862SOL    HW134649   8.175   4.970   4.461  0.9097  1.6435  0.6124
 9862SOL    HW234650   8.313   4.981   4.373  1.1722 -0.1272  0.7970
 9863SOL     OW34651   3.395   9.930   1.643 -0.0808  0.3832  0.1333
 9863SOL    HW134652   3.302   9.945   1.677 -0.0088  1.0492  0.0381
 9863SOL    HW234653   3.391   9.898   1.548 -0.1723  1.7006 -0.3152
 9864SOL     OW34654   3.585   6.568   2.487  0.3568 -0.4879 -0.1544
 9864SOL    HW134655   3.610   6.628   2.410 -0.5415  1.1832  0.8416
 9864SOL    HW234656   3.504   6.515   2.463  0.5791 -0.5942 -0.6781
 9865SOL     OW34657   1.094   1.372   3.044 -0.0752 -0.5201 -0.3787
 9865SOL    HW134658   1.086   1.463   3.003 -0.0070  0.4909  1.7752
 9865SOL    HW234659   1.078   1.302   2.974 -1.3168  1.1497 -1.8065
 9866SOL     OW34660   2.301   8.365   3.660 -0.1772  0.2992 -0.2388
 9866SOL    HW134661   2.263   8.417   3.584 -2.2908  1.1036  1.3239
 9866SOL    HW234662   2.368   8.421   3.709  0.6399  0.0368 -1.0362
 9867SOL     OW34663   3.701   4.623   4.121 -0.2826  0.3645  0.2312
 9867SOL    HW134664   3.631   4.638   4.191 -0.7945  1.9694 -0.5992
 9867SOL    HW234665   3.666   4.561   4.051  0.1682 -1.1085  1.2826
 9868SOL     OW34666   0.357   7.138   1.318  0.6787 -0.3579 -0.1370
 9868SOL    HW134667   0.308   7.207   1.372  0.9335 -1.2160  1.1981
 9868SOL    HW234668   0.426   7.093   1.374  1.2302 -0.9895 -1.2896
 9869SOL     OW34669   2.577   5.639   0.903  0.4546 -0.3600 -0.2359
 9869SOL    HW134670   2.609   5.555   0.861  2.9080  0.8007 -0.7435
 9869SOL    HW234671   2.579   5.713   0.836 -1.9602  0.0662  0.1257
 9871SOL     OW34672   5.975   9.274   2.181  0.0687  0.0440 -0.5961
 9871SOL    HW134673   5.899   9.211   2.192 -0.4928  1.0740  1.7134
 9871SOL    HW234674   6.048   9.249   2.245  0.4451  0.8390 -0.7076
 9872SOL     OW34675   1.766   2.974   1.662 -0.4801  0.0745  0.0252
 9872SOL    HW134676   1.829   3.003   1.734 -1.4277  2.0234  0.0766
 9872SOL    HW234677   1.805   2.996   1.573 -0.4316 -0.0793  0.0073
 9873SOL     OW34678   3.734   4.099   4.225 -0.2292  0.4547  0.1007
 9873SOL    HW134679   3.829   4.088   4.193 -0.1223  3.1483 -0.6384
 9873SOL    HW234680   3.678   4.026   4.186  1.2425 -0.2882 -0.7086
 9874SOL     OW34681   8.457   3.252   4.281  0.4389  0.4580  0.2625
 9874SOL    HW134682   8.367   3.284   4.309  0.6276 -0.0886  1.5591
 9874SOL    HW234683   8.502   3.208   4.359  0.4826 -2.2882 -1.2466
 9876SOL     OW34684   7.923   9.477   3.037 -0.2380  0.4048  0.0810
 9876SOL    HW134685   7.887   9.383   3.033 -1.0756  0.7703 -1.1453
 9876SOL    HW234686   8.020   9.476   3.011  0.1022 -0.2862  1.3201
 9877SOL     OW34687   4.573   2.179   3.327  0.2161 -0.2128 -0.2627
 9877SOL    HW134688   4.644   2.232   3.374  0.6239  0.2400 -1.3868
 9877SOL    HW234689   4.509   2.241   3.281 -1.1134 -0.6026  0.9953
 9878SOL     OW34690   0.777   2.902   0.964  0.2020 -0.1694  0.3843
 9878SOL    HW134691   0.692   2.888   1.014  0.3429 -1.3265  0.3087
 9878SOL    HW234692   0.781   2.996   0.931 -1.4413 -0.3354 -0.3447
 9879SOL     OW34693   4.992   3.077   0.336  0.0612  0.2799 -0.1914
 9879SOL    HW134694   5.003   3.013   0.260 -0.7758 -0.7258  0.5166
 9879SOL    HW234695   5.023   3.034   0.421 -0.3788  0.8586  0.2717
 9880SOL     OW34696   7.025   8.783   2.621  0.1662  0.2075 -0.4198
 9880SOL    HW134697   6.943   8.837   2.605 -0.4422 -0.9370 -1.2391
 9880SOL    HW234698   7.039   8.719   2.545  0.8259 -0.8447  0.5540
 9881SOL     OW34699   9.884   1.901   3.929  0.1821 -0.3270 -0.9806
 9881SOL    HW134700   9.839   1.815   3.952 -1.6066  0.7721 -0.2802
 9881SOL    HW234701   9.817   1.976   3.930  1.6056  1.0044 -2.0597
 9882SOL     OW34702   1.483   1.152   1.143  0.3074 -0.3470 -0.1464
 9882SOL    HW134703   1.479   1.066   1.092  1.3925  0.1277 -1.0609
 9882SOL    HW234704   1.395   1.169   1.188  0.3573 -2.3597  0.7548
 9884SOL     OW34705   7.761   7.954   1.779 -0.2614 -0.1187  0.3181
 9884SOL    HW134706   7.850   7.913   1.799  0.8676  2.2164  0.2565
 9884SOL    HW234707   7.705   7.956   1.862  1.8729  3.4078  1.7942
 9885SOL     OW34708   4.713   4.777   0.066 -0.2452  0.0581  0.5115
 9885SOL    HW134709   4.753   4.697   0.020 -1.2181  0.2450 -0.6772
 9885SOL    HW234710   4.778   4.811   0.134  0.1699 -1.7702  1.0750
 9887SOL     OW34711   2.677   9.191   4.073  0.8070  0.3971 -0.2123
 9887SOL    HW134712   2.701   9.287   4.089 -0.1815  0.6086  0.0307
 9887SOL    HW234713   2.614   9.160   4.144  2.4471 -0.9508  0.6777
 9888SOL     OW34714   3.097   9.879   0.877 -0.1520  0.1925 -0.0739
 9888SOL    HW134715   3.177   9.833   0.838  0.3887  1.0999 -0.0417
 9888SOL    HW234716   3.048   9.927   0.804  0.5561  1.4433  0.2669
 9890SOL     OW34717   2.821   6.148   4.320 -0.2159 -0.4568 -0.1193
 9890SOL    HW134718   2.751   6.206   4.361  1.9341  1.2359  1.2966
 9890SOL    HW234719   2.794   6.052   4.328 -2.3798  0.1620  0.3175
 9892SOL     OW34720   8.760   0.084   0.442  0.1325 -0.2751  0.9879
 9892SOL    HW134721   8.850   0.075   0.484  1.2709  1.4456 -0.9993
 9892SOL    HW234722   8.754   0.025   0.361 -1.1751 -1.7072  2.0839
 9893SOL     OW34723   7.136   1.310   1.194 -0.3107  0.4100  0.2633
 9893SOL    HW134724   7.113   1.248   1.119  1.1300 -0.4415  0.5122
 9893SOL    HW234725   7.103   1.272   1.280  0.3087  0.1233  0.3778
 9894SOL     OW34726   7.624   8.563   1.506 -0.3166 -0.6262 -0.4617
 9894SOL    HW134727   7.708   8.614   1.488  0.2761 -2.1127 -2.1192
 9894SOL    HW234728   7.622   8.535   1.602  0.3019  0.7882 -0.0185
 9895SOL     OW34729   8.169   1.780   3.604  0.2709 -0.0075  0.7668
 9895SOL    HW134730   8.191   1.877   3.601  0.4716 -0.0947 -1.3057
 9895SOL    HW234731   8.089   1.762   3.547 -1.8043 -0.5694  3.7692
 9896SOL     OW34732   4.372   7.715   3.416  0.1301 -0.1070  0.3304
 9896SOL    HW134733   4.386   7.618   3.439 -1.3648 -0.2050  0.9332
 9896SOL    HW234734   4.382   7.770   3.499  1.9084  0.3822 -0.1854
 9899SOL     OW34735   9.057   6.415   1.528  0.1881  0.8490  0.2181
 9899SOL    HW134736   8.958   6.431   1.523  0.0033 -0.0303  0.8905
 9899SOL    HW234737   9.105   6.502   1.528 -0.4824  1.2666 -1.9909
 9900SOL     OW34738   4.237   1.038   2.987 -0.2172 -0.0485  0.4703
 9900SOL    HW134739   4.155   1.018   3.041  0.3354  0.2512  1.4271
 9900SOL    HW234740   4.270   1.130   3.009  0.2487 -0.0812 -0.0799
 9901SOL     OW34741   1.382   6.663   1.644  0.5991 -0.2402 -0.6618
 9901SOL    HW134742   1.412   6.755   1.619  0.8031  0.3732  1.7631
 9901SOL    HW234743   1.306   6.669   1.709  1.8051 -1.7534  0.9330
 9902SOL     OW34744   4.382   9.886   0.552  0.1478  0.1122 -0.2516
 9902SOL    HW134745   4.459   9.948   0.563 -0.6335  1.1239 -0.4673
 9902SOL    HW234746   4.349   9.858   0.642 -1.0743  1.9788 -0.1030
 9903SOL     OW34747   0.556   8.658   1.891  0.0779  0.3304  0.1783
 9903SOL    HW134748   0.582   8.752   1.912 -0.1737  0.7168 -1.1819
 9903SOL    HW234749   0.595   8.596   1.959  0.3619  1.3974  1.0023
 9904SOL     OW34750   0.657   5.560   3.745  0.1107 -0.8783  0.3905
 9904SOL    HW134751   0.655   5.467   3.707 -0.6409 -1.2983  1.4111
 9904SOL    HW234752   0.699   5.622   3.679  0.4865 -1.9157 -0.3707
 9906SOL     OW34753   9.149   7.602   2.825  0.6428 -0.4693  0.6255
 9906SOL    HW134754   9.085   7.619   2.899  0.8002  2.5075  0.1271
 9906SOL    HW234755   9.098   7.583   2.741  0.4507 -1.5391  0.9780
 9907SOL     OW34756   3.030   7.505   3.813  0.3289 -0.2148 -0.2013
 9907SOL    HW134757   2.999   7.543   3.900 -0.3040  1.4919 -1.1499
 9907SOL    HW234758   2.951   7.492   3.753  0.5205 -3.0542  0.0742
 9908SOL     OW34759   0.268   7.511   1.751 -0.7261  0.4683  0.3268
 9908SOL    HW134760   0.189   7.450   1.752 -1.7284  1.6744 -1.7160
 9908SOL    HW234761   0.252   7.589   1.810 -0.1188 -0.3846  1.6495
 9909SOL     OW34762   0.798   5.041   2.671  0.1306 -0.2608  0.0470
 9909SOL    HW134763   0.734   5.085   2.608  0.3003  0.9712  0.7211
 9909SOL    HW234764   0.886   5.087   2.667  0.6318 -1.2340 -0.0427
 9910SOL     OW34765   0.138   2.726   1.662  0.4172 -0.1257  0.0836
 9910SOL    HW134766   0.064   2.702   1.724 -1.7330  0.4739 -2.1574
 9910SOL    HW234767   0.214   2.766   1.714 -1.1369 -0.0008  2.3226
 9912SOL     OW34768   7.861   7.268   2.103  0.4247 -0.4145  0.1192
 9912SOL    HW134769   7.895   7.268   2.010 -1.0802 -0.5444 -0.4512
 9912SOL    HW234770   7.761   7.275   2.102  0.3452 -1.0282  1.6971
 9913SOL     OW34771   2.353   3.756   3.293  0.4628  0.0732 -0.0240
 9913SOL    HW134772   2.363   3.728   3.388  1.0534 -1.4410 -0.5149
 9913SOL    HW234773   2.441   3.747   3.246 -0.1571 -0.5650 -1.0732
 9914SOL     OW34774   0.535   7.784   1.835  0.2891  0.1621  0.2773
 9914SOL    HW134775   0.635   7.792   1.825  0.2474 -0.7337 -0.9508
 9914SOL    HW234776   0.494   7.768   1.745 -0.9578  0.3587  0.8043
 9915SOL     OW34777   6.739   0.312   1.049 -0.3496 -0.4357 -0.3495
 9915SOL    HW134778   6.691   0.237   1.095  1.5292 -1.0351  0.7080
 9915SOL    HW234779   6.743   0.294   0.951  0.5783 -2.0327 -0.0367
 9916SOL     OW34780   8.323   7.661   1.752  0.1540 -0.1361  0.1260
 9916SOL    HW134781   8.274   7.632   1.670  0.4895  1.9631 -0.8513
 9916SOL    HW234782   8.377   7.743   1.732  3.2425 -1.7526  1.4439
 9917SOL     OW34783   3.655   3.107   2.260  0.3315  0.7408 -0.2126
 9917SOL    HW134784   3.671   3.132   2.355  1.8594 -0.1659 -0.2066
 9917SOL    HW234785   3.566   3.063   2.251  0.7994 -0.4989  1.0775
 9918SOL     OW34786   6.053   0.751   1.267  0.4386  0.0719 -0.0122
 9918SOL    HW134787   5.992   0.812   1.216  0.0236 -1.4679 -1.4138
 9918SOL    HW234788   6.127   0.804   1.307 -1.1147  1.8055  0.6465
 9919SOL     OW34789   8.969   2.719   2.935  0.2532 -0.0058  0.3020
 9919SOL    HW134790   8.897   2.715   3.004  1.1052  2.4683  1.3743
 9919SOL    HW234791   8.952   2.796   2.873  0.9412 -0.5919 -0.6324
 9920SOL     OW34792   0.447   1.761   0.406 -0.6552 -0.1663  0.0697
 9920SOL    HW134793   0.518   1.740   0.338  0.9041  0.8688  1.3382
 9920SOL    HW234794   0.368   1.801   0.360  0.3239  0.3917 -1.1554
 9921SOL     OW34795   1.764   7.702   1.238  0.5020 -0.9692 -0.0239
 9921SOL    HW134796   1.732   7.613   1.272  1.4238 -0.8540  1.1690
 9921SOL    HW234797   1.858   7.693   1.205  0.1675 -0.7116 -1.0582
 9922SOL     OW34798   1.839   4.623   1.550  0.2501 -0.3615 -0.6450
 9922SOL    HW134799   1.923   4.577   1.522 -0.6505 -2.9756  0.8193
 9922SOL    HW234800   1.794   4.662   1.470  1.0252 -2.0837 -1.9506
 9923SOL     OW34801   0.592   6.980   2.635 -0.0198  1.0456  0.0304
 9923SOL    HW134802   0.560   6.917   2.705  4.1403 -0.5928  0.5869
 9923SOL    HW234803   0.548   6.957   2.547 -0.7521 -0.7093  0.8338
 9924SOL     OW34804   8.166   2.901   1.738 -0.4446  0.2270 -0.7293
 9924SOL    HW134805   8.158   2.802   1.732  0.7017  0.2378 -2.8757
 9924SOL    HW234806   8.216   2.936   1.659  1.6694  2.2505  1.4022
 9926SOL     OW34807   3.894   0.225   0.102 -0.0719  0.1602 -0.3655
 9926SOL    HW134808   3.883   0.292   0.176  0.9245 -0.7462  0.6347
 9926SOL    HW234809   3.991   0.217   0.080 -0.2518 -0.4968 -0.9084
 9927SOL     OW34810   7.187   1.285   0.073 -0.3184  0.5541 -0.6252
 9927SOL    HW134811   7.106   1.226   0.073 -1.0215  1.5100 -0.9503
 9927SOL    HW234812   7.267   1.230   0.049 -1.0835 -0.1256 -1.7109
 9928SOL     OW34813   3.886   1.352   1.819  0.0083  0.2795  0.1717
 9928SOL    HW134814   3.822   1.394   1.883  1.3424  1.1155  1.0043
 9928SOL    HW234815   3.944   1.423   1.780  1.4017 -0.6274  0.5575
 9930SOL     OW34816   8.081   0.791   1.900  0.6201 -0.0669 -0.0076
 9930SOL    HW134817   8.089   0.890   1.901  1.1633 -0.0868 -1.2576
 9930SOL    HW234818   8.103   0.756   1.809  2.5475 -1.4905  0.9520
 9931SOL     OW34819   2.569   4.803   0.169  0.1551 -0.3763  0.5301
 9931SOL    HW134820   2.652   4.819   0.115 -0.7911  0.1573 -0.8044
 9931SOL    HW234821   2.528   4.891   0.192 -1.3147 -0.6687 -0.8753
 9932SOL     OW34822   2.717   7.278   3.446 -0.3406 -0.3455 -0.3536
 9932SOL    HW134823   2.770   7.222   3.382  0.7755  2.2603 -1.7865
 9932SOL    HW234824   2.639   7.319   3.399 -0.0428  0.8413  0.1607
 9933SOL     OW34825   7.019   8.794   4.018  0.0307 -0.1185  0.0931
 9933SOL    HW134826   6.991   8.752   4.105 -0.5518 -0.5554 -0.3044
 9933SOL    HW234827   6.943   8.789   3.953 -0.2205  2.0373  0.2081
 9934SOL     OW34828   0.368   9.204   2.630 -0.5189  0.4225 -0.2384
 9934SOL    HW134829   0.344   9.233   2.538 -0.4956  0.0325 -0.3711
 9934SOL    HW234830   0.297   9.231   2.694  0.2070  2.0856 -0.1189
 9935SOL     OW34831   7.893   2.606   0.961 -0.4424  1.0331  0.1082
 9935SOL    HW134832   7.831   2.668   1.010 -2.2657 -0.9851  0.3934
 9935SOL    HW234833   7.935   2.543   1.026 -2.4025 -1.2632 -0.7859
 9936SOL     OW34834   4.542   3.384   3.819  0.2362 -0.2440 -0.3330
 9936SOL    HW134835   4.558   3.300   3.767 -0.2133 -0.6820  0.2313
 9936SOL    HW234836   4.578   3.462   3.769  0.4716 -0.7556 -0.9558
 9937SOL     OW34837   9.879   0.460   1.904  0.6950 -0.2578 -0.5877
 9937SOL    HW134838   9.967   0.506   1.911 -0.1444  1.3545 -0.5163
 9937SOL    HW234839   9.813   0.519   1.858 -1.2593 -0.1218  2.2731
 9938SOL     OW34840   8.175   8.728   1.787  0.0698  0.0520 -0.0515
 9938SOL    HW134841   8.119   8.758   1.864 -0.2988 -0.2953 -0.1824
 9938SOL    HW234842   8.249   8.794   1.772 -0.3046  0.5119  0.1178
 9939SOL     OW34843   2.492   7.400   3.274  0.2654  0.4906  0.5895
 9939SOL    HW134844   2.489   7.313   3.225  0.6253  1.5675 -1.4045
 9939SOL    HW234845   2.408   7.411   3.327 -0.1188 -0.7054  0.2508
 9940SOL     OW34846   0.848   5.350   3.346 -0.6203  0.4786  0.2329
 9940SOL    HW134847   0.874   5.434   3.296 -0.2710  0.7950  0.9412
 9940SOL    HW234848   0.850   5.273   3.283  0.9811  0.6791  0.0060
 9942SOL     OW34849   1.130   6.921   3.657 -0.3375  0.1761 -0.5355
 9942SOL    HW134850   1.053   6.938   3.597 -0.1889 -1.7509 -1.3136
 9942SOL    HW234851   1.199   6.867   3.609  0.5263  0.0308  0.8228
 9944SOL     OW34852   7.553   2.189   0.731  0.1847  0.8529  0.0091
 9944SOL    HW134853   7.638   2.239   0.720 -0.6341  2.4923  0.9445
 9944SOL    HW234854   7.476   2.253   0.733 -1.1159 -0.6225 -1.1963
 9946SOL     OW34855   8.538   0.809   1.862  0.1418  0.0245  0.4059
 9946SOL    HW134856   8.630   0.832   1.893  0.2969 -1.2848  0.9307
 9946SOL    HW234857   8.471   0.833   1.932  0.2052 -0.2202  0.5480
 9948SOL     OW34858   5.840   0.366   1.264  0.0038 -0.1414  0.0728
 9948SOL    HW134859   5.745   0.335   1.273  0.6429 -2.0429  0.4883
 9948SOL    HW234860   5.853   0.450   1.318 -1.5339  0.3793 -0.3430
 9949SOL     OW34861   5.344   1.083   1.295  0.6135 -0.1684  0.3627
 9949SOL    HW134862   5.342   1.056   1.391  1.3449 -0.6103  0.2607
 9949SOL    HW234863   5.305   1.010   1.239 -1.5069  0.8574  0.4865
 9952SOL     OW34864   3.170   9.197   1.288 -0.3579  0.5668  0.7207
 9952SOL    HW134865   3.156   9.133   1.363 -0.6989 -0.4959 -0.2390
 9952SOL    HW234866   3.249   9.254   1.307  1.5198 -1.8721  0.4307
 9953SOL     OW34867   8.169   8.810   1.068 -0.0885  0.1968 -0.3689
 9953SOL    HW134868   8.214   8.878   1.009 -0.7328 -1.5731 -2.9680
 9953SOL    HW234869   8.150   8.727   1.015 -0.9544 -1.3485  2.2875
 9954SOL     OW34870   0.522   8.770   2.198 -0.5656  0.1008  0.3794
 9954SOL    HW134871   0.527   8.841   2.128 -1.0656 -0.8561 -0.6395
 9954SOL    HW234872   0.454   8.702   2.172 -0.0261 -0.8033  1.2993
 9955SOL     OW34873   1.521   6.103   1.724 -0.6632  0.4365  0.0010
 9955SOL    HW134874   1.585   6.033   1.694  1.0551  1.1243  1.9103
 9955SOL    HW234875   1.461   6.129   1.648  0.2838 -1.3442 -1.3773
 9956SOL     OW34876   0.824   0.214   3.745  0.9856  0.1067  0.0278
 9956SOL    HW134877   0.805   0.278   3.819  0.8392 -1.0822  1.0343
 9956SOL    HW234878   0.872   0.134   3.781  0.0026 -0.9667 -0.9825
 9957SOL     OW34879   8.875   8.997   0.642  0.4026  0.2153 -0.1385
 9957SOL    HW134880   8.902   8.918   0.697 -0.2578 -0.9178 -1.4435
 9957SOL    HW234881   8.957   9.042   0.607  0.7581 -0.2731  0.0566
 9958SOL     OW34882   1.403   8.519   2.804  0.3903  0.2062 -0.2637
 9958SOL    HW134883   1.463   8.599   2.806  1.0675 -0.3105  0.5180
 9958SOL    HW234884   1.382   8.490   2.897 -0.5294 -0.0283 -0.5353
 9959SOL     OW34885   5.862   9.385   4.024  0.1638  0.7401  0.2981
 9959SOL    HW134886   5.778   9.339   3.995  0.3385  0.0811  0.8429
 9959SOL    HW234887   5.876   9.466   3.967 -0.1755  0.1579 -0.6245
 9960SOL     OW34888   9.935   7.266   3.629  0.2572  0.1017 -0.0344
 9960SOL    HW134889   9.876   7.194   3.666  0.3795  1.3671  2.8072
 9960SOL    HW234890  10.023   7.264   3.676  1.1669  0.5408 -1.6830
 9961SOL     OW34891   1.948   5.330   3.264 -0.2489  0.0598  0.2570
 9961SOL    HW134892   2.012   5.384   3.318 -2.2143  1.4499  1.2808
 9961SOL    HW234893   1.892   5.392   3.208 -0.2599 -1.1670 -1.1199
 9962SOL     OW34894   1.415   2.978   0.377  0.0007  0.4358  0.1553
 9962SOL    HW134895   1.333   3.032   0.398 -0.5226 -0.2361 -0.1358
 9962SOL    HW234896   1.493   3.039   0.367  0.1897  0.8454  3.5030
 9963SOL     OW34897   7.616   0.198   3.592  0.2045  0.3427  0.3196
 9963SOL    HW134898   7.550   0.266   3.625  0.0814  0.5527 -0.3397
 9963SOL    HW234899   7.706   0.240   3.585  1.2292 -0.8927  4.6641
 9964SOL     OW34900   8.311   2.848   2.175  0.3315  0.4479  0.1673
 9964SOL    HW134901   8.408   2.850   2.200  0.0778  1.6682  1.0894
 9964SOL    HW234902   8.258   2.808   2.250 -0.1029  1.5795  0.4759
 9965SOL     OW34903   4.687   1.815   2.402  0.4021  0.0061 -0.4361
 9965SOL    HW134904   4.781   1.841   2.426  0.3049 -0.1179  0.0752
 9965SOL    HW234905   4.630   1.896   2.399 -0.1262 -0.2249  2.1377
 9966SOL     OW34906   7.614   7.363   1.487 -0.1169  0.3524 -0.4284
 9966SOL    HW134907   7.517   7.379   1.470 -0.5227  0.1840  1.6813
 9966SOL    HW234908   7.655   7.446   1.525  0.6730  0.5476 -1.6626
 9967SOL     OW34909   1.300   7.232   0.746  0.1194 -0.1955  0.3569
 9967SOL    HW134910   1.286   7.174   0.665 -1.1081  1.3849 -0.5949
 9967SOL    HW234911   1.321   7.174   0.825  1.4011 -1.7631 -1.0946
 9968SOL     OW34912   8.554   6.309   3.167  0.6387  0.2941  0.3385
 9968SOL    HW134913   8.599   6.223   3.143 -0.9401 -0.3204 -0.4594
 9968SOL    HW234914   8.456   6.301   3.152  0.4604  2.2115  0.3544
 9969SOL     OW34915   2.041   4.913   3.111 -0.5831 -0.4488 -0.0008
 9969SOL    HW134916   2.057   4.929   3.014  1.1643 -1.1330  0.1529
 9969SOL    HW234917   2.080   4.824   3.137 -1.2801 -0.3965  1.2632
 9970SOL     OW34918   1.770   9.539   2.188 -0.4128  0.1888  0.5508
 9970SOL    HW134919   1.738   9.633   2.203  0.7735  0.3510  2.2761
 9970SOL    HW234920   1.805   9.502   2.274 -1.0212 -1.9135 -0.0759
 9972SOL     OW34921   3.507   0.267   2.730  0.2132 -0.5648  0.0492
 9972SOL    HW134922   3.552   0.221   2.654  2.8359 -0.9908  1.8149
 9972SOL    HW234923   3.463   0.351   2.697 -0.2478 -1.6696 -2.2320
 9973SOL     OW34924   0.869   0.798   2.011 -0.1182  0.0088 -0.3028
 9973SOL    HW134925   0.805   0.764   2.080  1.2346  1.9768  1.9824
 9973SOL    HW234926   0.886   0.726   1.943 -2.2545 -1.6181  0.8250
 9974SOL     OW34927   0.806   0.389   3.360  0.2413  0.4583  0.0416
 9974SOL    HW134928   0.784   0.477   3.320  1.4124  0.3028 -0.9797
 9974SOL    HW234929   0.845   0.403   3.451  0.3549  0.9942 -0.0869
 9977SOL     OW34930   6.572   1.279   4.300  0.2132 -0.3523  0.0651
 9977SOL    HW134931   6.622   1.314   4.379 -0.3381  1.3489 -0.3311
 9977SOL    HW234932   6.619   1.198   4.264  0.7583 -0.8260  1.7996
 9978SOL     OW34933   9.323   0.843   0.326  0.0150 -0.3196 -0.4126
 9978SOL    HW134934   9.367   0.767   0.277 -0.4891  0.0883 -1.5196
 9978SOL    HW234935   9.332   0.927   0.272 -0.8110  0.0799  0.0583
 9980SOL     OW34936   8.410   7.843   1.286  0.0316  0.3819 -0.6897
 9980SOL    HW134937   8.397   7.915   1.217 -0.5547  0.3255 -0.6417
 9980SOL    HW234938   8.374   7.757   1.251  0.6825  0.1210 -0.7245
 9981SOL     OW34939   4.364   2.940   0.866 -0.2721  0.1465  0.0885
 9981SOL    HW134940   4.432   2.984   0.925 -0.7542 -0.8950  1.4536
 9981SOL    HW234941   4.385   2.959   0.770  0.8573  1.3885  0.5737
 9983SOL     OW34942   2.240   5.000   1.271  0.2437 -0.0212  0.0343
 9983SOL    HW134943   2.333   4.964   1.282  0.4178 -0.1685 -1.6957
 9983SOL    HW234944   2.185   4.975   1.351  1.2684 -1.2728  0.3798
 9984SOL     OW34945   3.855   2.180   1.326  0.1218 -0.1167  0.3255
 9984SOL    HW134946   3.920   2.110   1.358  0.5537  0.2401  0.2262
 9984SOL    HW234947   3.902   2.267   1.314 -0.3328  0.0932  0.0424
 9986SOL     OW34948   2.436   8.375   4.117  0.3523 -0.2086 -0.5242
 9986SOL    HW134949   2.466   8.470   4.107 -1.1255  0.5425  1.8407
 9986SOL    HW234950   2.437   8.350   4.213 -1.6093 -1.8149 -0.8978
 9987SOL     OW34951   0.469   0.938   4.036  0.2996  0.2951  0.1633
 9987SOL    HW134952   0.426   0.882   4.107  3.2726 -1.3923  0.7351
 9987SOL    HW234953   0.568   0.938   4.050  0.6878  2.2939 -2.3402
 9988SOL     OW34954   5.195   8.871   1.735  0.1030  0.1140  0.1019
 9988SOL    HW134955   5.272   8.838   1.790 -1.1177  1.0211  2.3975
 9988SOL    HW234956   5.228   8.937   1.668  1.5185 -0.5303  0.1421
 9990SOL     OW34957   9.306   0.324   4.052  0.2946  0.8165  0.1032
 9990SOL    HW134958   9.312   0.241   3.997  0.1320  1.1116 -0.3611
 9990SOL    HW234959   9.237   0.384   4.013 -0.1461  0.8289  0.8929
 9992SOL     OW34960   7.115   4.037   0.775  0.0783  0.2047 -0.3071
 9992SOL    HW134961   7.105   3.946   0.815  0.7993 -0.1025 -0.8186
 9992SOL    HW234962   7.210   4.066   0.780 -0.0660  0.7354 -0.5656
 9993SOL     OW34963   6.300   1.038   3.042  0.0370  0.2026  0.2945
 9993SOL    HW134964   6.351   1.088   3.112  0.5708 -1.0465  0.8067
 9993SOL    HW234965   6.226   0.986   3.085  1.2727 -1.7263  0.1205
 9994SOL     OW34966   1.712   2.212   3.054  0.1277  0.2620 -0.4435
 9994SOL    HW134967   1.793   2.219   2.996 -0.0141  2.0277 -0.4720
 9994SOL    HW234968   1.722   2.135   3.116  0.4424 -1.4345 -2.5538
 9995SOL     OW34969   1.815   2.366   4.287 -0.0549 -0.0812 -0.0322
 9995SOL    HW134970   1.850   2.459   4.278 -1.9061  0.6687  0.1050
 9995SOL    HW234971   1.832   2.333   4.380 -0.3133  0.5292  0.2367
 9996SOL     OW34972   1.135   9.590   1.236 -0.3381  0.2723 -0.1498
 9996SOL    HW134973   1.088   9.547   1.312 -1.0290  1.2558 -0.0084
 9996SOL    HW234974   1.133   9.529   1.157  1.3529 -1.2167  0.9356
 9997SOL     OW34975   1.893   3.773   2.773  0.4952 -0.5772  0.0874
 9997SOL    HW134976   1.857   3.681   2.791 -0.3809 -0.0616  1.0238
 9997SOL    HW234977   1.892   3.826   2.858  0.1234  0.6010 -0.6413
 9998SOL     OW34978   8.051   8.040   2.025  0.3566 -0.0865  0.0435
 9998SOL    HW134979   8.127   8.103   2.040 -0.3807  0.6491  0.6972
 9998SOL    HW234980   8.013   8.012   2.113 -0.0103 -0.6025 -0.2773
 9999SOL     OW34981   1.777   9.594   0.642  0.1391 -0.2029 -0.0942
 9999SOL    HW134982   1.703   9.644   0.687 -2.3345 -2.1634 -1.8032
 9999SOL    HW234983   1.740   9.509   0.603  3.6291 -2.0119  0.3580
10000SOL     OW34984   8.890   4.438   1.862 -0.6134  0.3601 -0.0300
10000SOL    HW134985   8.887   4.434   1.962 -0.8017  1.2183  0.0021
10000SOL    HW234986   8.845   4.357   1.824  0.5976 -0.6239  0.5783
10001SOL     OW34987   8.144   8.499   3.045 -0.1061 -0.0610 -0.2080
10001SOL    HW134988   8.204   8.432   3.001  1.3552  2.7738 -2.6854
10001SOL    HW234989   8.055   8.499   2.998 -0.4241 -0.8627  0.3789
10002SOL     OW34990   5.326   0.032   1.812  0.1784  0.6530 -0.5896
10002SOL    HW134991   5.358   0.113   1.861 -0.4166  1.0249 -0.8089
10002SOL    HW234992   5.404  -0.019   1.777  0.6058  0.4343  0.6657
10003SOL     OW34993   1.321   5.876   0.831 -0.4107  0.2512  0.5019
10003SOL    HW134994   1.264   5.863   0.750  2.3356  0.6574 -1.5519
10003SOL    HW234995   1.351   5.971   0.836  0.3986 -0.0428  1.3491
10004SOL     OW34996   2.251   0.574   1.177  0.0397 -0.3221 -0.3301
10004SOL    HW134997   2.265   0.487   1.129 -1.2670 -0.3853 -0.6014
10004SOL    HW234998   2.330   0.634   1.160  0.0155 -0.6933 -1.8104
10005SOL     OW34999   9.595   2.594   2.958  0.0715  0.2705  0.2243
10005SOL    HW135000   9.506   2.550   2.964 -0.5385  1.4582  0.0932
10005SOL    HW235001   9.585   2.684   2.915  1.3465  0.3685  0.1130
10006SOL     OW35002   4.484   8.157   0.094 -0.2637  0.7809  0.7559
10006SOL    HW135003   4.447   8.245   0.124  2.4519  1.5962  1.8958
10006SOL    HW235004   4.530   8.170   0.006 -0.3691  0.3811  0.6431
10007SOL     OW35005   8.077   6.655   2.704  0.4455 -0.0498 -0.1546
10007SOL    HW135006   8.110   6.601   2.781  0.8964 -0.1853 -0.4336
10007SOL    HW235007   8.135   6.736   2.693  1.6023 -1.0271 -1.5314
10008SOL     OW35008   7.411   7.237   4.008 -0.3286  0.0373  0.0999
10008SOL    HW135009   7.346   7.213   4.080  0.9422  0.0768  1.2733
10008SOL    HW235010   7.496   7.186   4.021 -0.4468 -0.7526 -1.9907
10009SOL     OW35011   9.418   4.152   2.909  0.0475 -0.0899  0.4994
10009SOL    HW135012   9.376   4.227   2.857  0.3468  0.0001  0.3872
10009SOL    HW235013   9.349   4.108   2.966 -0.0137  0.6106  0.9693
10010SOL     OW35014   3.423   5.099   0.226  0.1757 -0.4722 -0.4445
10010SOL    HW135015   3.380   5.187   0.206  0.0546 -0.6996 -1.2382
10010SOL    HW235016   3.418   5.080   0.324 -1.5636 -0.5055 -0.5205
10011SOL     OW35017   3.145   9.252   1.013  0.1054 -0.0651  0.4474
10011SOL    HW135018   3.144   9.159   0.977  1.9229 -0.1083  0.4682
10011SOL    HW235019   3.140   9.249   1.113  3.3041 -0.2931  0.6359
10012SOL     OW35020   2.238   2.129   2.553  0.2293  0.0667 -0.2752
10012SOL    HW135021   2.187   2.208   2.588 -0.0074  0.7782 -2.1597
10012SOL    HW235022   2.268   2.148   2.460  2.0730 -1.2224  0.0350
10014SOL     OW35023   0.655   7.377   4.419 -0.1578  0.1236  0.5847
10014SOL    HW135024   0.568   7.413   4.453 -0.8619  0.2769 -1.2860
10014SOL    HW235025   0.691   7.310   4.483 -2.2711 -0.8236  0.8119
10015SOL     OW35026   7.366   9.583   3.000 -0.3823  0.0911 -0.1681
10015SOL    HW135027   7.463   9.558   2.991 -0.1415  0.9702 -0.1249
10015SOL    HW235028   7.326   9.592   2.909  0.2353  2.1545 -0.2667
10016SOL     OW35029   1.268   1.205   1.302 -0.3797 -0.2121  0.0324
10016SOL    HW135030   1.260   1.303   1.322 -2.5873  0.3486 -3.2553
10016SOL    HW235031   1.177   1.164   1.301  0.4206 -2.0128 -0.0418
10017SOL     OW35032   9.016   9.665   2.162 -0.2528  0.0843 -0.3570
10017SOL    HW135033   8.943   9.598   2.153  0.9163 -0.9310 -2.7251
10017SOL    HW235034   9.103   9.625   2.132  0.6223  2.3816 -1.0267
10018SOL     OW35035   7.459   9.812   3.697  0.0446 -0.0281 -0.0508
10018SOL    HW135036   7.452   9.868   3.615 -0.4712  0.0210  0.0243
10018SOL    HW235037   7.456   9.871   3.778  2.4504  0.1013 -0.0229
10020SOL     OW35038   9.987   0.529   0.761 -0.7775  0.0268  0.5033
10020SOL    HW135039   9.992   0.529   0.661 -2.3815  0.7964  0.4100
10020SOL    HW235040  10.070   0.570   0.799  0.1468 -0.9036 -0.4878
10021SOL     OW35041   8.372   6.752   1.143 -0.3110  0.2031  0.3829
10021SOL    HW135042   8.337   6.658   1.133  0.6291 -0.1196  0.0782
10021SOL    HW235043   8.346   6.805   1.062 -0.8713  0.2174  0.5684
10023SOL     OW35044   9.200   3.415   1.029  0.1395 -0.7575 -0.1497
10023SOL    HW135045   9.165   3.342   0.969  1.6120 -2.2080  0.7274
10023SOL    HW235046   9.146   3.418   1.113 -3.0701  2.4357 -2.1770
10024SOL     OW35047   1.783   1.358   3.312  0.0113  0.3966  0.2562
10024SOL    HW135048   1.692   1.398   3.318 -0.5106 -0.9461  1.5639
10024SOL    HW235049   1.841   1.394   3.385 -0.4603 -1.1884  1.4383
10025SOL     OW35050   4.333   9.751   2.027 -0.6119  0.0255  0.2900
10025SOL    HW135051   4.381   9.818   2.084  1.2842 -0.6850 -0.4510
10025SOL    HW235052   4.236   9.775   2.023 -0.1215  2.2248  0.7525
10028SOL     OW35053   4.141   7.096   1.646 -0.7280 -0.0064 -0.3139
10028SOL    HW135054   4.165   7.050   1.731 -1.5398  1.6391  0.8452
10028SOL    HW235055   4.082   7.038   1.591  1.3699 -1.8696 -0.6753
10029SOL     OW35056   2.824   9.282   1.020 -0.3267  0.2304  0.3777
10029SOL    HW135057   2.810   9.337   1.103 -0.9229 -1.2749  1.2996
10029SOL    HW235058   2.922   9.263   1.008 -0.4388 -1.6481  2.1546
10030SOL     OW35059   4.110   5.901   2.796 -0.5653  0.5843  0.0973
10030SOL    HW135060   4.073   5.825   2.742  0.2622 -0.0314  0.3770
10030SOL    HW235061   4.077   5.893   2.891  1.7459 -1.0437  0.8036
10031SOL     OW35062   9.987   9.860   1.954  0.4554 -0.6874 -0.3926
10031SOL    HW135063  10.080   9.859   1.916  0.9003  2.2399  0.4768
10031SOL    HW235064   9.920   9.863   1.879  1.2284  1.7208 -1.0413
10032SOL     OW35065   2.001   7.914   3.198 -1.0422  0.5445  0.3755
10032SOL    HW135066   1.904   7.929   3.220 -1.9258 -2.8043 -0.8316
10032SOL    HW235067   2.037   7.839   3.254  0.2532  0.4037 -0.6196
10033SOL     OW35068   1.473   6.440   3.754 -0.0236  0.6453  0.2679
10033SOL    HW135069   1.412   6.482   3.687  0.3430 -1.4369 -1.3896
10033SOL    HW235070   1.562   6.484   3.750  0.0938  0.3137 -0.8416
10035SOL     OW35071   1.375   7.855   0.062  0.1158 -0.3817 -0.4487
10035SOL    HW135072   1.361   7.757   0.072 -2.5637 -0.4659 -4.0673
10035SOL    HW235073   1.301   7.904   0.109  0.3606 -0.1412 -0.3129
10036SOL     OW35074   8.277   5.047   2.864 -0.6756  0.4627  0.3794
10036SOL    HW135075   8.233   5.129   2.903 -1.6436  0.9927 -1.7689
10036SOL    HW235076   8.279   4.975   2.933 -1.7039  1.6084  1.6456
10037SOL     OW35077   8.359   8.088   3.136  0.1446 -0.5127  0.3099
10037SOL    HW135078   8.412   8.143   3.072 -0.2944 -1.3476 -0.7813
10037SOL    HW235079   8.264   8.120   3.136  0.1417 -0.5187  0.5496
10039SOL     OW35080   9.737   6.618   0.926  0.3824  0.7731 -0.0077
10039SOL    HW135081   9.661   6.557   0.901  0.5266  0.6138 -0.0577
10039SOL    HW235082   9.775   6.659   0.843  2.8342 -2.0819 -0.3856
10041SOL     OW35083   3.482   8.520   2.598 -0.2292 -0.8214  0.2574
10041SOL    HW135084   3.581   8.537   2.589 -0.1114 -0.4293  2.0710
10041SOL    HW235085   3.466   8.460   2.677 -1.5640  0.4446  0.9711
10042SOL     OW35086   1.831   6.253   4.021 -1.0723 -0.2704  0.1986
10042SOL    HW135087   1.807   6.169   3.972 -1.2125 -0.6137  0.8475
10042SOL    HW235088   1.747   6.303   4.042 -1.1702 -1.0716  1.7585
10043SOL     OW35089   2.059   6.146   3.584 -0.2176 -0.4341 -0.2986
10043SOL    HW135090   2.100   6.161   3.494  1.2126  3.2606  0.8762
10043SOL    HW235091   1.960   6.159   3.579 -0.1263 -0.1098 -1.3288
10044SOL     OW35092   1.635   6.811   1.157 -0.2599 -0.4388 -0.3281
10044SOL    HW135093   1.702   6.756   1.108  0.6976  0.1737  0.2708
10044SOL    HW235094   1.659   6.908   1.149 -0.7323 -0.2555  0.3851
10046SOL     OW35095   0.175   7.331   2.056 -0.0350 -0.0115 -0.2743
10046SOL    HW135096   0.093   7.373   2.016  0.7504  1.2665 -0.5558
10046SOL    HW235097   0.205   7.386   2.135  0.8905 -0.1401 -0.5324
10047SOL     OW35098   9.188   3.509   4.417 -0.3013  0.0090 -1.0095
10047SOL    HW135099   9.100   3.490   4.374 -0.4278  1.0297 -1.2211
10047SOL    HW235100   9.262   3.482   4.355 -0.4431 -1.7284 -0.4472
10049SOL     OW35101   1.358   9.039   0.987  0.1643 -0.2265  0.4418
10049SOL    HW135102   1.392   8.954   0.946 -1.4094 -0.7031  0.0890
10049SOL    HW235103   1.315   9.095   0.916  1.8548  1.2097  0.5406
10050SOL     OW35104   1.548   9.498   3.195  0.1576  0.0057 -0.2039
10050SOL    HW135105   1.550   9.534   3.288  0.8761 -0.2849 -0.1089
10050SOL    HW235106   1.639   9.502   3.155 -0.2663  0.7296 -1.1315
10051SOL     OW35107   7.112   0.855   2.532 -0.0995 -0.5318  0.4021
10051SOL    HW135108   7.138   0.802   2.451 -0.7584 -1.4295  0.7696
10051SOL    HW235109   7.038   0.808   2.580 -0.1902  0.3552  1.1422
10052SOL     OW35110   5.104   9.762   1.628 -0.6706  0.3011 -0.3103
10052SOL    HW135111   5.112   9.808   1.716  0.3637  0.0748 -0.2828
10052SOL    HW235112   5.061   9.673   1.641 -1.8037  0.8390 -0.2361
10053SOL     OW35113   9.558   4.673   3.579  0.5582  0.3381  0.2234
10053SOL    HW135114   9.632   4.609   3.561 -0.8277 -1.1045 -0.3834
10053SOL    HW235115   9.482   4.625   3.624 -0.2557  1.6689  0.2954
10054SOL     OW35116   7.092   1.687   2.501 -0.5283  0.0760 -0.3050
10054SOL    HW135117   7.128   1.601   2.537  2.6846  0.6809 -1.8731
10054SOL    HW235118   7.059   1.673   2.408 -0.9623  0.3275 -0.1899
10055SOL     OW35119   7.909   3.161   2.491 -0.1030  0.6882 -0.7012
10055SOL    HW135120   7.936   3.160   2.394  3.1454 -1.9391  0.1234
10055SOL    HW235121   7.970   3.222   2.542 -0.1307  0.0216  0.1306
10056SOL     OW35122   8.644   2.090   1.848 -0.7542  0.4855  0.3074
10056SOL    HW135123   8.688   2.159   1.792 -0.2531 -1.4911 -1.8013
10056SOL    HW235124   8.556   2.066   1.809 -2.1989  1.9105  2.5868
10057SOL     OW35125   2.710   1.808   1.961  0.8308 -0.2031 -0.1960
10057SOL    HW135126   2.754   1.764   2.039  0.1549  1.6169  1.2583
10057SOL    HW235127   2.779   1.855   1.905  1.1278 -0.1707  0.1996
10059SOL     OW35128   8.985   2.537   3.832 -0.1597 -0.3916 -0.2620
10059SOL    HW135129   8.962   2.444   3.860  1.7319 -0.4566  1.1631
10059SOL    HW235130   8.984   2.543   3.732 -2.2443 -1.4019 -0.3390
10060SOL     OW35131   2.983   0.283   1.607  0.4770  0.2824 -0.5601
10060SOL    HW135132   3.014   0.194   1.640  0.9445  0.3633 -0.7691
10060SOL    HW235133   2.884   0.289   1.614  0.3438 -0.6404 -1.4867
10061SOL     OW35134   4.479   1.706   2.613 -0.1703 -0.1524  0.3803
10061SOL    HW135135   4.456   1.803   2.605 -0.5282 -0.4063 -1.9838
10061SOL    HW235136   4.492   1.667   2.522 -0.5341 -2.4555  1.2757
10062SOL     OW35137   2.451   7.209   3.681 -0.2896  0.5435 -0.4482
10062SOL    HW135138   2.541   7.232   3.717  1.9434 -0.9919 -4.7567
10062SOL    HW235139   2.426   7.274   3.608 -1.9111 -0.0671 -0.4713
10063SOL     OW35140   4.480   0.274   1.507  0.1644 -0.3286 -0.1243
10063SOL    HW135141   4.510   0.333   1.582  1.4847  1.6685 -2.1765
10063SOL    HW235142   4.519   0.183   1.519  2.5630  0.7172  0.2299
10064SOL     OW35143   5.182   0.705   0.680 -0.0147 -0.1697 -0.2987
10064SOL    HW135144   5.120   0.629   0.662 -2.3184  0.8518  2.8285
10064SOL    HW235145   5.208   0.704   0.777  0.1803  2.7757 -0.2641
10065SOL     OW35146   2.713   3.693   3.401 -0.6927 -0.2670  0.3178
10065SOL    HW135147   2.807   3.702   3.433 -0.6992 -1.9588  0.8579
10065SOL    HW235148   2.660   3.772   3.430  1.3238  2.3999 -2.8320
10066SOL     OW35149   9.007   5.154   2.162  0.2492  0.5989  0.1439
10066SOL    HW135150   9.029   5.245   2.126 -0.6511  0.9121  0.3704
10066SOL    HW235151   9.091   5.102   2.175  0.6779  0.9611 -1.1511
10067SOL     OW35152   5.211   0.193   1.247 -0.3491 -0.0479 -0.0527
10067SOL    HW135153   5.268   0.218   1.169 -0.1757 -0.7787 -0.1668
10067SOL    HW235154   5.172   0.102   1.232  1.3497 -1.0948  1.6167
10068SOL     OW35155   2.923   4.173   1.265  0.6072 -0.3493  0.5913
10068SOL    HW135156   2.874   4.258   1.282 -0.2877 -1.1629  2.2056
10068SOL    HW235157   2.988   4.186   1.190 -1.8943  0.8159 -1.4342
10069SOL     OW35158   5.538   1.681   3.248  0.3792  0.1122  0.1441
10069SOL    HW135159   5.566   1.735   3.169 -0.5472  0.9828  0.4082
10069SOL    HW235160   5.438   1.685   3.259  0.6997  2.1547  2.8800
10070SOL     OW35161   8.489   0.817   1.279  0.0977  0.6828 -0.2434
10070SOL    HW135162   8.540   0.786   1.359 -1.0733  1.3759  0.7873
10070SOL    HW235163   8.425   0.888   1.306 -0.7563  0.4789 -1.6964
10071SOL     OW35164   0.248   6.416   0.077 -0.2059 -0.8106 -0.0899
10071SOL    HW135165   0.211   6.472   0.151  2.1307  0.0698  0.4907
10071SOL    HW235166   0.207   6.443  -0.010  0.8563  1.8752  0.1856
10072SOL     OW35167   9.161   0.945   1.455 -0.4290 -0.1536  0.2802
10072SOL    HW135168   9.167   1.044   1.440  0.1822 -0.5759 -2.4800
10072SOL    HW235169   9.203   0.922   1.543  1.2399  1.8152  0.0183
10073SOL     OW35170   9.425   0.921   1.318  0.3054 -0.1883 -0.1110
10073SOL    HW135171   9.334   0.913   1.359  0.1167  0.5810 -0.3629
10073SOL    HW235172   9.421   0.988   1.243  1.0731 -0.1763 -0.1401
10074SOL     OW35173   7.574   9.652   3.269  0.0351 -0.1377 -0.0386
10074SOL    HW135174   7.483   9.628   3.302 -0.8649  0.6635 -1.8485
10074SOL    HW235175   7.614   9.721   3.329 -1.1150  0.5009  0.0089
10075SOL     OW35176   1.084   7.453   4.439  0.5959 -0.3213  0.4820
10075SOL    HW135177   1.030   7.466   4.356  2.2215  0.2403 -0.5021
10075SOL    HW235178   1.180   7.446   4.415  0.8484 -2.7932  2.0833
10076SOL     OW35179   1.854   3.139   1.468 -0.3061  0.0417  0.3784
10076SOL    HW135180   1.810   3.201   1.533 -1.3735  0.1535 -0.4435
10076SOL    HW235181   1.866   3.185   1.380 -1.4352 -1.0372 -0.3513
10077SOL     OW35182   8.303   2.590   2.676  0.3506 -0.3382  0.0357
10077SOL    HW135183   8.368   2.626   2.744  0.6971  0.0591 -0.5008
10077SOL    HW235184   8.324   2.494   2.658 -0.6940 -0.8891  1.6148
10078SOL     OW35185   1.757   0.959   2.668 -0.4492 -0.2724  0.4657
10078SOL    HW135186   1.806   0.923   2.747 -1.3566 -1.6330  0.4347
10078SOL    HW235187   1.821   1.010   2.609  0.5888 -0.7017  1.2020
10079SOL     OW35188   0.146   2.467   1.514 -0.4915 -0.3226  0.1806
10079SOL    HW135189   0.154   2.555   1.560  2.3154  0.7160 -2.0690
10079SOL    HW235190   0.087   2.476   1.433 -2.3287 -1.1931  1.3937
10080SOL     OW35191   3.409   0.355   3.596 -0.4210 -0.0539 -0.4259
10080SOL    HW135192   3.470   0.349   3.674 -1.2383  0.2943  0.2401
10080SOL    HW235193   3.345   0.278   3.597 -2.6500  1.7388  1.1429
10081SOL     OW35194   3.064   3.239   2.597 -0.6559 -0.1219  0.6639
10081SOL    HW135195   3.049   3.316   2.535 -0.5954  0.8525  1.8271
10081SOL    HW235196   3.160   3.235   2.623 -0.3160 -1.7164 -0.8264
10082SOL     OW35197   5.180   3.927   0.984  0.3741  0.1025 -0.1701
10082SOL    HW135198   5.249   3.857   1.000 -0.3816 -0.6316 -0.0859
10082SOL    HW235199   5.097   3.885   0.947  0.4648  1.1654 -1.6253
10084SOL     OW35200   0.599   7.109   2.194  0.8602  0.0094 -0.2056
10084SOL    HW135201   0.568   7.154   2.110  1.7207 -0.1439 -0.6156
10084SOL    HW235202   0.674   7.160   2.234  1.8536 -1.0494 -0.6822
10085SOL     OW35203   3.055   9.040   0.841 -0.6406  0.0890  0.1970
10085SOL    HW135204   2.983   8.971   0.840 -0.7874  0.2180 -1.8454
10085SOL    HW235205   3.034   9.111   0.774  0.2725  1.3073  1.1865
10086SOL     OW35206   0.107   8.168   1.967 -0.8296  0.1699 -0.4067
10086SOL    HW135207   0.156   8.085   1.943 -1.6634 -0.7395  0.9117
10086SOL    HW235208   0.169   8.246   1.962  0.1956 -0.6526 -0.7942
10087SOL     OW35209   0.970   1.694   2.579 -0.7476 -0.3414 -0.3901
10087SOL    HW135210   1.045   1.678   2.644 -0.8280  1.6296  0.2292
10087SOL    HW235211   1.000   1.666   2.488  0.3910 -0.5099  0.0169
10088SOL     OW35212   9.713   8.880   3.698  0.2988 -0.1977  0.5806
10088SOL    HW135213   9.807   8.897   3.726  0.5490 -0.0551 -0.3209
10088SOL    HW235214   9.657   8.861   3.778  1.2680 -1.1122  1.0526
10090SOL     OW35215   9.769   0.712   4.125  0.4379 -0.2583 -0.7398
10090SOL    HW135216   9.865   0.684   4.125  0.6587  0.4703 -0.2447
10090SOL    HW235217   9.715   0.643   4.173  1.0027  0.2343  0.6374
10091SOL     OW35218   7.268   2.698   0.300 -0.2116  0.1712  0.1586
10091SOL    HW135219   7.294   2.623   0.239 -0.9164  0.0308  0.0234
10091SOL    HW235220   7.344   2.719   0.361 -0.3828 -1.3852  0.9335
10092SOL     OW35221   3.257   4.044   3.128 -0.4098 -0.1541  0.3018
10092SOL    HW135222   3.292   4.117   3.186 -1.7463  0.4013  0.4227
10092SOL    HW235223   3.213   4.083   3.047 -2.7260 -0.7131  1.2468
10093SOL     OW35224   3.402   9.947   3.824  0.2290  0.0921 -0.2416
10093SOL    HW135225   3.371  10.019   3.886  0.3641  0.0224 -0.0931
10093SOL    HW235226   3.363   9.859   3.853 -0.4010  0.2004 -0.7626
10094SOL     OW35227   2.354   1.242   3.261 -0.6695 -0.7866 -0.0044
10094SOL    HW135228   2.315   1.177   3.326  0.3566 -0.2282  1.1839
10094SOL    HW235229   2.341   1.335   3.295  1.8272 -0.5883  0.5378
10095SOL     OW35230   0.789   7.157   2.602 -0.1136  0.1192  0.1820
10095SOL    HW135231   0.775   7.249   2.640 -0.1361  1.5313 -3.1014
10095SOL    HW235232   0.715   7.097   2.633  0.6453  0.7591  3.5033
10096SOL     OW35233   7.669   2.773   3.096  0.7775 -0.5379 -0.5108
10096SOL    HW135234   7.757   2.726   3.087  0.4938 -1.1325 -0.2015
10096SOL    HW235235   7.601   2.709   3.131  1.2317  0.9939  3.5205
10097SOL     OW35236   8.921   3.521   4.370 -0.6729  0.1563 -0.1991
10097SOL    HW135237   8.886   3.614   4.380 -4.1316 -1.1553  0.6462
10097SOL    HW235238   8.928   3.478   4.460 -0.6977 -0.9778 -0.7296
10098SOL     OW35239   5.535   0.790   0.653  0.3522  0.1339 -0.0739
10098SOL    HW135240   5.461   0.791   0.720  0.4479 -0.1191  0.0364
10098SOL    HW235241   5.534   0.703   0.603  0.4940  0.1812 -0.1591
10099SOL     OW35242   2.797   4.986   0.713  0.0328  0.1373 -0.1843
10099SOL    HW135243   2.851   4.985   0.798 -1.6746 -1.2743  0.9396
10099SOL    HW235244   2.795   4.893   0.675  0.9062  0.8040 -1.8558
10100SOL     OW35245   9.023   8.242   0.519 -0.2728 -0.3152  0.1339
10100SOL    HW135246   8.943   8.300   0.538 -0.1389 -0.8835  2.5018
10100SOL    HW235247   9.003   8.183   0.440 -2.0104 -0.1219  0.4053
10101SOL     OW35248   1.214   5.734   4.106 -0.2170 -0.0820  0.2385
10101SOL    HW135249   1.139   5.793   4.076  0.1487 -0.0240 -0.5868
10101SOL    HW235250   1.286   5.790   4.146  0.8479  0.2486 -2.0182
10102SOL     OW35251   1.930   4.876   2.836  0.4327 -0.2145  0.7016
10102SOL    HW135252   1.945   4.778   2.849  0.3791 -0.3483 -0.1994
10102SOL    HW235253   1.867   4.890   2.760 -0.7407  0.4725  1.7821
10103SOL     OW35254   3.633   1.294   3.365  0.3287 -0.0124  0.2743
10103SOL    HW135255   3.666   1.202   3.385 -1.3895 -0.7399 -0.1035
10103SOL    HW235256   3.579   1.292   3.281  2.3285  1.8337 -1.0945
10104SOL     OW35257   1.151   0.864   2.909 -0.2454  0.1495  0.0596
10104SOL    HW135258   1.099   0.898   2.988  0.8581  0.8890  0.4875
10104SOL    HW235259   1.224   0.804   2.941 -0.7725 -0.8249 -0.5355
10105SOL     OW35260   1.759   9.890   3.437  0.2483 -0.2170  0.4540
10105SOL    HW135261   1.724   9.833   3.511  0.7514  0.2887  1.0847
10105SOL    HW235262   1.682   9.921   3.381 -0.0889 -0.9922  0.4716
10106SOL     OW35263   7.500   9.530   3.714  0.7856 -0.4663 -0.4426
10106SOL    HW135264   7.491   9.489   3.805  0.8481 -0.1702 -0.3016
10106SOL    HW235265   7.469   9.625   3.717 -1.2753 -1.1000 -1.2457
10107SOL     OW35266   9.992   3.541   2.203 -0.2567 -0.6254  0.4370
10107SOL    HW135267   9.983   3.590   2.117  0.7083 -1.1973  0.0102
10107SOL    HW235268  10.078   3.491   2.205 -0.8387 -1.6141  1.2269
10108SOL     OW35269   8.096   9.395   1.746 -0.1969 -0.1979  0.2717
10108SOL    HW135270   8.103   9.311   1.799 -0.7117 -1.2151 -1.2429
10108SOL    HW235271   8.002   9.406   1.712 -0.1922  1.1062  0.6533
10109SOL     OW35272   6.789   9.824   1.726 -0.1865 -0.0811 -0.5450
10109SOL    HW135273   6.756   9.742   1.679 -1.6596 -0.1070  0.4686
10109SOL    HW235274   6.750   9.905   1.683  0.5414  0.0387 -0.9802
10110SOL     OW35275   2.923   5.283   3.754  0.0392 -0.0637 -0.4643
10110SOL    HW135276   2.934   5.187   3.731  1.9969  0.0547 -0.0773
10110SOL    HW235277   2.929   5.294   3.853 -0.0023  0.4796 -0.5211
10111SOL     OW35278   4.855   7.477   1.634  0.3430  0.7800  0.1801
10111SOL    HW135279   4.814   7.422   1.561  0.4849  0.8337  0.0593
10111SOL    HW235280   4.843   7.430   1.722 -0.9720  1.3345  0.3120
10112SOL     OW35281   5.936   8.603   4.327  0.8269  0.7464 -0.2916
10112SOL    HW135282   5.921   8.700   4.309 -1.8653  0.6677  1.1837
10112SOL    HW235283   5.996   8.594   4.407  0.6998  1.2130 -0.1365
10114SOL     OW35284   1.203   9.317   1.637  0.3433  0.4525  0.0515
10114SOL    HW135285   1.227   9.221   1.653 -0.0043  0.3368 -0.1128
10114SOL    HW235286   1.104   9.325   1.627  0.4534  0.6883 -0.8816
10115SOL     OW35287   5.703   0.805   3.621  0.3576 -0.5110 -0.1322
10115SOL    HW135288   5.779   0.788   3.560  0.5723 -2.0458  0.5535
10115SOL    HW235289   5.617   0.806   3.569  0.4849 -2.3382 -0.3835
10117SOL     OW35290   5.249   3.447   1.675 -0.1661  0.3111 -0.2567
10117SOL    HW135291   5.252   3.489   1.584 -0.2434  0.3740 -0.2309
10117SOL    HW235292   5.263   3.349   1.667 -0.6147  0.2563 -0.3796
10118SOL     OW35293   2.480   5.062   0.135 -0.5292 -0.3326 -0.0704
10118SOL    HW135294   2.522   5.108   0.057 -1.5880  0.9807  0.1151
10118SOL    HW235295   2.417   5.125   0.181  0.3806 -0.9446  2.0958
10119SOL     OW35296   4.256   9.232   2.911 -0.0873  0.0382 -0.0675
10119SOL    HW135297   4.235   9.327   2.888  1.8295  0.2758 -0.9704
10119SOL    HW235298   4.296   9.228   3.003  0.7504  0.2346 -0.4203
10120SOL     OW35299   9.425   7.737   1.983 -0.0912 -0.1341  0.1938
10120SOL    HW135300   9.455   7.811   1.923 -0.9502  0.7161  0.7974
10120SOL    HW235301   9.493   7.723   2.055 -0.2186  0.4786  0.4357
10122SOL     OW35302   5.698   8.234   4.154  0.1120 -0.2095 -0.1866
10122SOL    HW135303   5.773   8.296   4.131  1.4642 -1.8056 -0.1642
10122SOL    HW235304   5.657   8.198   4.071  0.3071 -0.4470 -0.1798
10123SOL     OW35305   1.081   3.433   2.079  0.0626 -0.1190 -0.4415
10123SOL    HW135306   1.038   3.352   2.039 -1.2678 -0.1315  0.9734
10123SOL    HW235307   1.062   3.436   2.177 -0.7877  2.4565 -0.6576
10124SOL     OW35308   3.958   3.273   1.625  0.2889 -0.0460  0.0185
10124SOL    HW135309   4.057   3.260   1.619  0.6547  2.6454 -0.3726
10124SOL    HW235310   3.935   3.310   1.715 -0.1888  0.6457 -0.3810
10125SOL     OW35311   7.473   7.234   2.994 -0.0673  0.1296  0.5938
10125SOL    HW135312   7.509   7.156   2.943 -0.5326 -1.2972  2.4015
10125SOL    HW235313   7.374   7.240   2.980  0.1989  1.4988 -0.9577
10126SOL     OW35314   5.002   9.445   1.032  0.6672  0.0668 -0.1604
10126SOL    HW135315   4.903   9.459   1.034  0.7735  0.7402  1.0870
10126SOL    HW235316   5.030   9.419   0.940 -0.3760  2.2262 -1.1320
10127SOL     OW35317   9.701   7.232   2.098  0.1737  0.3528  0.8398
10127SOL    HW135318   9.725   7.249   2.193  0.0823 -1.6367  1.2396
10127SOL    HW235319   9.607   7.260   2.081 -0.4937 -1.2480  1.8786
10128SOL     OW35320   0.588   9.290   3.372  0.0163  0.0079  0.0901
10128SOL    HW135321   0.659   9.307   3.304 -1.7407  0.2834 -1.7258
10128SOL    HW235322   0.504   9.261   3.326 -1.2127  0.1939  2.1484
10129SOL     OW35323   8.109   3.503   0.314 -0.0591 -0.4554  0.6343
10129SOL    HW135324   8.209   3.505   0.314 -0.0172 -2.0025  1.1465
10129SOL    HW235325   8.075   3.524   0.406 -0.1757 -0.7879  0.6690
10130SOL     OW35326   8.817   1.372   4.342  0.0561  0.2233 -0.0639
10130SOL    HW135327   8.833   1.273   4.343  1.9328  0.4935  1.0422
10130SOL    HW235328   8.725   1.392   4.375  0.0998 -1.0923  0.8840
10131SOL     OW35329   9.130   3.635   0.892  0.1213  0.1359 -0.2066
10131SOL    HW135330   9.077   3.608   0.812 -1.7190 -2.2702  1.7301
10131SOL    HW235331   9.147   3.555   0.949  0.4394  1.9655  2.3392
10132SOL     OW35332   4.180   3.559   2.901 -1.0228  0.1876 -0.4942
10132SOL    HW135333   4.139   3.470   2.919 -1.1410 -0.1244 -2.2868
10132SOL    HW235334   4.251   3.550   2.831  2.2531  0.6828  2.5430
10135SOL     OW35335   0.226   3.411   2.170  0.3878 -0.2639  0.1860
10135SOL    HW135336   0.314   3.456   2.183  0.7349 -0.6555 -0.7175
10135SOL    HW235337   0.233   3.315   2.198  0.0623 -0.1226  0.7469
10137SOL     OW35338   9.109   4.438   2.356  0.1946  0.5785  0.0469
10137SOL    HW135339   9.043   4.384   2.302  0.2151  1.1989 -0.5955
10137SOL    HW235340   9.150   4.379   2.425 -1.2640  0.2488  0.6615
10138SOL     OW35341   7.460   9.230   2.755 -0.3333 -0.1614  0.3218
10138SOL    HW135342   7.538   9.189   2.802 -0.1790 -0.2395 -0.0073
10138SOL    HW235343   7.441   9.179   2.671 -1.4389 -0.8396  0.9681
10139SOL     OW35344   8.708   3.590   1.989 -0.3179 -0.5354  0.1835
10139SOL    HW135345   8.621   3.558   1.952  0.4167 -1.1980 -1.0351
10139SOL    HW235346   8.735   3.674   1.943 -0.5706 -0.0321  0.9457
10140SOL     OW35347   7.813   5.756   4.275 -0.0018 -1.0429  0.4763
10140SOL    HW135348   7.890   5.790   4.328 -0.5847  1.8259 -0.4275
10140SOL    HW235349   7.821   5.787   4.180 -1.4786 -1.9813  0.0222
10141SOL     OW35350   9.539   0.473   2.480 -0.0910  0.3180 -0.0607
10141SOL    HW135351   9.547   0.568   2.508 -0.5763  0.4255 -0.2800
10141SOL    HW235352   9.573   0.413   2.553  1.6683  0.7016 -0.5303
10142SOL     OW35353   4.612   9.002   3.194  0.1234 -0.1417 -0.0136
10142SOL    HW135354   4.575   8.988   3.103  0.2734  2.7974 -0.5839
10142SOL    HW235355   4.551   8.962   3.262 -1.8417  0.7859 -1.1986
10143SOL     OW35356   9.865   9.864   0.062  0.5028  0.7354  0.0844
10143SOL    HW135357   9.770   9.833   0.074  1.0400 -1.0025  0.0640
10143SOL    HW235358   9.865   9.959   0.033 -1.2305  0.8805  0.4658
10144SOL     OW35359   3.584   4.773   0.279  0.1118 -0.2870 -0.1920
10144SOL    HW135360   3.605   4.814   0.368  1.4444  0.1279 -0.6914
10144SOL    HW235361   3.625   4.827   0.207 -0.1051 -1.1967 -1.0099
10145SOL     OW35362   5.706   1.994   2.378  0.3126 -0.3613  0.3325
10145SOL    HW135363   5.710   1.973   2.281 -1.8055 -1.1358  0.4013
10145SOL    HW235364   5.769   1.934   2.428  0.5193 -0.7635 -0.4083
10146SOL     OW35365   8.030   8.621   4.331  0.4693  0.0541  0.2632
10146SOL    HW135366   8.042   8.593   4.426  1.3738 -2.1681 -0.4596
10146SOL    HW235367   8.119   8.634   4.288  0.0839  0.2148 -0.5094
10147SOL     OW35368   1.700   9.053   1.491 -0.2200 -0.3016 -0.3984
10147SOL    HW135369   1.606   9.080   1.474 -0.2957 -0.8039 -0.7689
10147SOL    HW235370   1.739   9.112   1.562 -1.6932 -1.8461  1.7474
10148SOL     OW35371   0.161   0.330   3.000  0.3034  0.2777  0.0492
10148SOL    HW135372   0.092   0.360   2.935 -0.6965 -1.6657  0.1785
10148SOL    HW235373   0.227   0.404   3.015 -1.0049  1.7058 -1.0526
10149SOL     OW35374   0.146   8.432   4.333 -0.4006  0.0434 -0.2717
10149SOL    HW135375   0.231   8.415   4.383 -1.0242  0.1442  0.8242
10149SOL    HW235376   0.149   8.523   4.293 -0.5220  0.5261  0.8239
10150SOL     OW35377   1.827   8.823   3.967  0.4336 -0.2522  0.3397
10150SOL    HW135378   1.777   8.753   4.017  1.1962 -1.2073 -0.2283
10150SOL    HW235379   1.852   8.789   3.877  0.1743  1.0133 -0.2301
10151SOL     OW35380   3.295   0.952   0.983 -0.2290  0.2502 -0.1034
10151SOL    HW135381   3.292   1.019   0.908 -1.8785  1.0381  0.6386
10151SOL    HW235382   3.262   0.864   0.950  1.3864 -0.0753 -0.9284
10152SOL     OW35383   6.839   9.467   4.246  1.0453  0.2194 -0.5246
10152SOL    HW135384   6.818   9.565   4.247 -3.2154 -0.5864  1.2910
10152SOL    HW235385   6.792   9.424   4.169 -2.4065 -1.2900  2.2650
10153SOL     OW35386   3.728   5.328   4.228 -0.6439  0.3026  0.3985
10153SOL    HW135387   3.747   5.235   4.197 -0.5072  0.9181 -1.4480
10153SOL    HW235388   3.814   5.379   4.236 -0.8183  0.6282  0.2112
10154SOL     OW35389   2.978   4.909   1.462 -0.3426 -0.2209  0.6768
10154SOL    HW135390   2.930   4.852   1.529  0.7483 -2.4892 -0.4445
10154SOL    HW235391   3.076   4.900   1.475 -0.1472  0.6070 -0.1982
10156SOL     OW35392   5.591   7.901   1.763  0.0118  0.1914  0.3442
10156SOL    HW135393   5.575   7.910   1.862 -1.3436  0.3979  0.1113
10156SOL    HW235394   5.663   7.965   1.735  0.7000 -0.1654  1.2686
10157SOL     OW35395   2.976   9.614   1.083 -0.2431 -0.1057  0.5292
10157SOL    HW135396   3.012   9.564   1.004 -3.1956 -1.0323 -0.3169
10157SOL    HW235397   2.895   9.666   1.055 -0.6145  0.5438  2.6980
10158SOL     OW35398   9.926   9.257   0.383 -0.0464  0.3257  0.3672
10158SOL    HW135399   9.877   9.290   0.464 -0.8859 -1.5876  0.6597
10158SOL    HW235400   9.888   9.169   0.355  0.4843  0.7893 -1.8999
10159SOL     OW35401   6.632   7.392   3.677  0.3481  0.0370 -0.0124
10159SOL    HW135402   6.568   7.318   3.657  0.9603 -0.3480 -0.5525
10159SOL    HW235403   6.673   7.377   3.767 -0.5867  0.4788  0.4936
10160SOL     OW35404   4.353   8.340   3.331  0.1295 -0.3746 -0.1037
10160SOL    HW135405   4.398   8.272   3.389  1.0662 -0.4621 -0.9117
10160SOL    HW235406   4.418   8.411   3.306 -0.8045  0.7533  0.5979
10161SOL     OW35407   1.207   1.949   3.417 -0.2374 -0.0229  0.2269
10161SOL    HW135408   1.252   2.022   3.467 -0.8597  1.5342 -1.4454
10161SOL    HW235409   1.113   1.976   3.395 -0.4706 -1.2996 -0.4321
10162SOL     OW35410   3.136   3.575   0.273 -0.7077 -0.5847 -0.8483
10162SOL    HW135411   3.207   3.638   0.305 -0.2458 -0.8372 -1.3897
10162SOL    HW235412   3.061   3.573   0.340 -0.2351 -0.2750 -0.3099
10163SOL     OW35413   0.552   8.397   0.974  0.2733 -0.1272  0.3001
10163SOL    HW135414   0.512   8.436   0.891 -2.1158 -1.3705  0.8359
10163SOL    HW235415   0.560   8.298   0.964  1.2430 -0.1325  1.0443
10164SOL     OW35416   3.661   8.266   2.553 -0.0413  0.0849 -0.2114
10164SOL    HW135417   3.646   8.243   2.457 -1.5189  1.3679 -0.3022
10164SOL    HW235418   3.573   8.279   2.598  0.6929  1.4685  0.8309
10167SOL     OW35419   6.657   6.879   3.735 -0.7744 -0.3023 -0.2011
10167SOL    HW135420   6.688   6.925   3.819 -0.4263  1.9016 -1.5031
10167SOL    HW235421   6.578   6.821   3.756 -0.0090 -0.6349  1.8538
10168SOL     OW35422   0.720   4.688   3.201  0.8488  0.0498  0.3218
10168SOL    HW135423   0.811   4.658   3.170  1.0569  1.0591 -0.0490
10168SOL    HW235424   0.688   4.763   3.144  0.8250  1.3183  1.9421
10170SOL     OW35425   2.391   7.886   1.400  0.0064 -0.0253  0.2726
10170SOL    HW135426   2.404   7.934   1.314  1.1752 -0.1838  0.3463
10170SOL    HW235427   2.294   7.864   1.413 -0.0877 -0.5762 -1.3082
10171SOL     OW35428   3.073   4.249   1.046 -0.7422 -0.0517 -0.2392
10171SOL    HW135429   3.158   4.302   1.047 -1.5610  1.2530  1.7239
10171SOL    HW235430   3.070   4.194   0.962  2.8742 -1.5249  0.5174
10172SOL     OW35431   3.183   5.809   3.096  0.1831  0.1519 -0.4910
10172SOL    HW135432   3.235   5.805   3.011  1.6895 -0.4254  0.4301
10172SOL    HW235433   3.183   5.903   3.131  0.7881  0.1228 -0.4000
10173SOL     OW35434   2.618   7.701   2.698  0.8607 -0.3803 -0.0611
10173SOL    HW135435   2.602   7.643   2.778  2.0384 -0.1905  0.3339
10173SOL    HW235436   2.632   7.643   2.617 -2.6075 -0.5354 -0.6222
10174SOL     OW35437   1.588   6.393   4.117  0.5270  0.2354  0.2740
10174SOL    HW135438   1.624   6.394   4.210 -1.6134 -2.0122  1.1832
10174SOL    HW235439   1.505   6.448   4.112 -0.0026 -0.5924 -0.0404
10175SOL     OW35440   2.385   5.104   0.969 -0.3132  0.2313  0.3346
10175SOL    HW135441   2.367   5.030   1.034 -1.4722 -2.1610 -2.6075
10175SOL    HW235442   2.300   5.152   0.948 -0.5993 -1.2615 -2.0289
10176SOL     OW35443   4.000   9.436   1.995 -0.2898  0.0346 -0.4211
10176SOL    HW135444   3.993   9.523   2.045  0.6370  0.4252 -0.9498
10176SOL    HW235445   3.997   9.361   2.061  2.7157  0.5985  0.4668
10177SOL     OW35446   8.865   8.733   3.760  0.5188 -1.0443  0.7123
10177SOL    HW135447   8.948   8.751   3.813  0.5687 -1.9050  0.9271
10177SOL    HW235448   8.872   8.643   3.718  0.5211 -0.3365 -0.8339
10178SOL     OW35449   2.555   9.888   1.668  0.3551 -0.1860 -0.2166
10178SOL    HW135450   2.484   9.818   1.667  0.4378 -0.2619 -1.6663
10178SOL    HW235451   2.552   9.936   1.756  0.0852 -1.7699  0.6752
10179SOL     OW35452   4.468   8.488   0.748 -0.1964 -0.2950 -0.2715
10179SOL    HW135453   4.496   8.504   0.654 -0.7836 -0.3159 -0.4501
10179SOL    HW235454   4.440   8.574   0.790  1.6466  0.0095  0.4158
10181SOL     OW35455   7.986   1.482   2.445 -0.0135  0.5324 -0.1160
10181SOL    HW135456   8.000   1.405   2.508  0.2321  1.8940  1.5411
10181SOL    HW235457   7.906   1.464   2.388  1.7933 -2.3051 -1.9034
10182SOL     OW35458   4.341   4.132   0.532  0.1963 -0.0647  0.6609
10182SOL    HW135459   4.246   4.101   0.535  0.3802 -0.5751  1.5107
10182SOL    HW235460   4.393   4.086   0.604  0.8384  1.0370  0.9116
10183SOL     OW35461   1.797   9.111   3.568  0.0287  0.1524 -0.2812
10183SOL    HW135462   1.764   9.133   3.476  1.6942 -2.2039 -1.5008
10183SOL    HW235463   1.882   9.161   3.586  0.0964  0.0646 -0.3490
10186SOL     OW35464   4.941   1.919   2.487  0.5059  0.0960  0.1372
10186SOL    HW135465   4.916   1.987   2.555 -0.0175 -1.4203  1.4932
10186SOL    HW235466   5.015   1.862   2.522 -0.6571 -1.5343 -0.0075
10187SOL     OW35467   7.341   1.234   3.615 -0.9117 -0.1041  0.0052
10187SOL    HW135468   7.435   1.199   3.612 -1.1327 -0.6241 -1.2269
10187SOL    HW235469   7.325   1.280   3.702  0.7319  0.6538 -0.0815
10188SOL     OW35470   4.577   8.054   3.321  0.5929 -0.7527  0.2073
10188SOL    HW135471   4.627   8.124   3.270  0.0406 -1.1709 -0.9247
10188SOL    HW235472   4.538   7.988   3.258 -2.4306  0.2313  0.9420
10190SOL     OW35473   6.229   9.488   3.486 -0.3498  0.9333 -0.2071
10190SOL    HW135474   6.145   9.513   3.437  1.2082  2.2553 -2.2763
10190SOL    HW235475   6.307   9.531   3.442  1.4238 -0.1288  1.8193
10191SOL     OW35476   9.039   9.065   3.032  0.2511 -0.0847 -0.2043
10191SOL    HW135477   8.981   9.144   3.013  0.2569  0.1784  0.8714
10191SOL    HW235478   9.010   9.021   3.116  0.4686 -1.0325 -0.6179
10193SOL     OW35479   1.438   0.666   4.265  0.0248 -0.0694  0.4981
10193SOL    HW135480   1.338   0.658   4.260 -0.0895  0.1209  2.0708
10193SOL    HW235481   1.474   0.592   4.322  0.7829 -0.1244 -0.0537
10194SOL     OW35482   1.004   5.123   1.324 -0.4518  0.9569 -0.2091
10194SOL    HW135483   0.953   5.054   1.376  1.2700 -0.4861 -0.4169
10194SOL    HW235484   1.021   5.202   1.383 -0.1435  0.1070  0.8613
10195SOL     OW35485   9.023   2.770   2.597  0.3136 -0.4791 -0.4390
10195SOL    HW135486   8.959   2.739   2.527 -2.4544  1.7441  1.0140
10195SOL    HW235487   8.979   2.838   2.655  3.3364 -0.4602  1.9698
10197SOL     OW35488   7.475   1.349   3.873  0.3132  0.1338 -0.2284
10197SOL    HW135489   7.387   1.306   3.894  0.6352 -0.2424  0.3776
10197SOL    HW235490   7.543   1.317   3.939  0.4939  1.7735  0.3977
10198SOL     OW35491   0.113   7.147   4.426 -0.1395 -0.0526 -0.1626
10198SOL    HW135492   0.053   7.177   4.500 -0.1030 -1.2221  0.3530
10198SOL    HW235493   0.208   7.147   4.457 -0.2308 -1.6733  0.1991
10199SOL     OW35494   3.160   1.590   4.022 -0.3252  0.5629  0.5292
10199SOL    HW135495   3.209   1.548   3.945 -0.3162  0.9828  0.3036
10199SOL    HW235496   3.159   1.527   4.099  2.6470  1.4112  1.3612
10201SOL     OW35497   3.288   8.357   3.596  0.1857 -0.0798 -0.0333
10201SOL    HW135498   3.307   8.327   3.503 -0.5059 -0.3274 -0.0953
10201SOL    HW235499   3.375   8.370   3.645  0.5318 -1.0950 -0.3476
10202SOL     OW35500   8.420   8.832   2.366  0.2871 -0.2779 -0.3259
10202SOL    HW135501   8.348   8.874   2.421 -0.4270 -1.9439  0.0408
10202SOL    HW235502   8.480   8.903   2.330 -0.7098  1.0215  0.5332
10204SOL     OW35503   7.560   0.508   3.196 -0.7463  0.0663 -0.2527
10204SOL    HW135504   7.501   0.573   3.149 -1.5224  0.1241  0.8012
10204SOL    HW235505   7.568   0.532   3.292  0.7122 -0.1437 -0.2966
10205SOL     OW35506   9.358   6.579   2.335  0.4794 -0.4147 -0.1084
10205SOL    HW135507   9.275   6.557   2.285  0.7521  2.3318 -1.8768
10205SOL    HW235508   9.344   6.561   2.433 -1.9425 -0.6780 -0.4812
10206SOL     OW35509   3.789   3.392   0.288  0.3930 -0.1847 -0.1158
10206SOL    HW135510   3.693   3.418   0.300  0.1912 -0.3399 -1.3295
10206SOL    HW235511   3.795   3.294   0.269  0.7905 -0.1587 -0.1343
10207SOL     OW35512   2.742   8.366   1.049  0.4451 -0.9224 -0.0856
10207SOL    HW135513   2.658   8.395   1.003  2.2697  2.7252 -1.3376
10207SOL    HW235514   2.776   8.441   1.106  4.3046 -1.2854 -1.7524
10208SOL     OW35515   7.978   6.177   3.583 -0.8388  0.7109 -0.5026
10208SOL    HW135516   7.939   6.206   3.670 -1.1620  2.7167 -1.2867
10208SOL    HW235517   7.914   6.115   3.536 -1.1974  0.6103  0.1207
10210SOL     OW35518   6.977   9.293   0.929  0.0749  0.0791 -0.8525
10210SOL    HW135519   6.987   9.197   0.955  1.3865  0.1026 -1.2319
10210SOL    HW235520   6.927   9.341   1.001  2.6929 -0.0892  1.1620
10211SOL     OW35521   8.895   6.077   1.281  0.1571 -0.4054  0.7277
10211SOL    HW135522   8.849   5.989   1.288 -0.1592 -0.2915  0.0552
10211SOL    HW235523   8.982   6.066   1.233 -0.9325  0.0434 -1.3607
10212SOL     OW35524   7.088   0.417   2.620 -0.3762  0.6743  0.1798
10212SOL    HW135525   7.108   0.332   2.573 -0.2191  0.3393  0.8391
10212SOL    HW235526   7.030   0.475   2.562  0.3058  0.5277 -0.6497
10214SOL     OW35527   7.891   7.485   2.915 -0.2362 -0.4460 -0.1062
10214SOL    HW135528   7.904   7.513   3.010 -0.6035  0.3590 -0.2837
10214SOL    HW235529   7.877   7.567   2.858 -1.5298 -1.0170 -0.6165
10215SOL     OW35530   7.383   1.048   0.190  0.1485 -0.3013  0.1380
10215SOL    HW135531   7.376   1.087   0.281  1.4207  1.2561 -0.4075
10215SOL    HW235532   7.470   1.074   0.149 -1.6863  1.6351 -2.7264
10216SOL     OW35533   2.743   9.511   1.674  0.4238  0.1247 -0.2457
10216SOL    HW135534   2.745   9.611   1.685 -0.2025  0.2287 -1.0842
10216SOL    HW235535   2.837   9.477   1.667  0.6979  0.5034  1.3611
10217SOL     OW35536   1.908   3.103   3.675  0.3958 -0.0973  0.1498
10217SOL    HW135537   1.931   3.098   3.578  1.3733 -0.2689  0.3881
10217SOL    HW235538   1.809   3.113   3.685 -0.0663 -3.1793 -0.8180
10218SOL     OW35539   3.319   0.662   2.444  0.1914 -0.5204 -0.1468
10218SOL    HW135540   3.224   0.649   2.418 -0.0344 -1.8362  1.2915
10218SOL    HW235541   3.338   0.760   2.454 -1.4249 -0.3127  1.0697
10219SOL     OW35542   5.073   9.464   3.065  0.0691 -0.9624 -0.3429
10219SOL    HW135543   5.015   9.399   3.115  1.0055 -2.1338 -0.7396
10219SOL    HW235544   5.027   9.553   3.060 -0.7865 -1.3032  1.1008
10220SOL     OW35545   4.350   5.345   0.689  0.0392  0.8302  0.1344
10220SOL    HW135546   4.317   5.356   0.782  1.8450 -1.3130  1.0639
10220SOL    HW235547   4.315   5.259   0.651  1.4555  0.3845 -0.1999
10221SOL     OW35548   8.049   0.962   1.596  0.2837  0.0611 -0.1276
10221SOL    HW135549   8.109   0.998   1.525 -2.6117  0.0700 -2.6450
10221SOL    HW235550   8.059   0.863   1.602  1.1460  0.1561  0.0637
10222SOL     OW35551   4.124   8.317   3.884  0.2861  0.0314 -0.1770
10222SOL    HW135552   4.167   8.376   3.952  0.5503 -1.9332  1.4118
10222SOL    HW235553   4.171   8.326   3.796  0.3213  2.1432  0.0546
10223SOL     OW35554   8.936   1.764   2.850  0.2872  0.1887  0.1213
10223SOL    HW135555   9.009   1.802   2.908  0.5898  1.7465 -1.2465
10223SOL    HW235556   8.958   1.670   2.826  0.1705 -0.4899  2.5004
10224SOL     OW35557   6.289   8.115   2.533 -0.4060  0.2582  0.2701
10224SOL    HW135558   6.206   8.155   2.494 -1.3128  0.2442  2.0924
10224SOL    HW235559   6.333   8.181   2.594  0.3350 -0.1071  0.1402
10225SOL     OW35560   9.095   5.414   0.486  0.4525 -0.0137 -0.0211
10225SOL    HW135561   9.118   5.320   0.509  0.3382 -0.0379 -0.0056
10225SOL    HW235562   9.007   5.438   0.527  1.1415  0.5448  1.1199
10227SOL     OW35563   1.775   6.553   2.558  0.0974  0.5895  0.1250
10227SOL    HW135564   1.780   6.530   2.656  1.5997 -1.2126 -0.3336
10227SOL    HW235565   1.702   6.618   2.543 -1.8751 -1.0675  2.1035
10228SOL     OW35566   4.369   9.406   1.713  0.3197  0.4670  0.1497
10228SOL    HW135567   4.379   9.460   1.630 -0.6505  2.6737  1.4149
10228SOL    HW235568   4.291   9.440   1.766  1.3745 -0.3879  2.3360
10229SOL     OW35569   8.479   2.428   3.190 -0.1406 -0.3059  0.1985
10229SOL    HW135570   8.459   2.421   3.288  1.2092  0.4876  0.5450
10229SOL    HW235571   8.405   2.477   3.144  0.2331  1.1935  1.1867
10230SOL     OW35572   1.961   6.396   2.035 -0.6709  0.2171 -0.0322
10230SOL    HW135573   1.962   6.445   2.122 -1.4851 -1.4906  0.9716
10230SOL    HW235574   1.871   6.405   1.993 -0.3848  0.7476 -0.5411
10231SOL     OW35575   9.651   9.698   4.196  0.4888 -0.1718  0.3066
10231SOL    HW135576   9.688   9.666   4.284  1.3850 -0.6579 -0.2474
10231SOL    HW235577   9.725   9.706   4.130 -0.2740 -0.3335 -0.5748
10232SOL     OW35578   3.402   3.898   2.956 -0.8559  0.0806  0.1342
10232SOL    HW135579   3.487   3.950   2.966 -0.9430  0.2061  0.2187
10232SOL    HW235580   3.328   3.945   3.003 -1.3008  0.7544 -1.2009
10233SOL     OW35581   8.831   8.510   0.229 -0.6969  0.6283  0.3572
10233SOL    HW135582   8.854   8.454   0.309 -1.0584 -1.3246 -0.8593
10233SOL    HW235583   8.768   8.583   0.256  0.7370  1.2271  2.2155
10234SOL     OW35584   1.274   8.214   3.319 -0.2544 -0.4032 -0.4269
10234SOL    HW135585   1.362   8.168   3.325  0.2810  0.6666 -0.1576
10234SOL    HW235586   1.249   8.225   3.223  0.3335  0.1216 -0.5189
10235SOL     OW35587   2.800   1.986   4.156 -0.3214  0.1585  0.3871
10235SOL    HW135588   2.822   1.889   4.150  1.9879  0.4631  2.8369
10235SOL    HW235589   2.862   2.039   4.098  0.7272  0.4211  1.7157
10236SOL     OW35590   0.067   5.928   1.370  0.5664  0.3391  0.0522
10236SOL    HW135591   0.030   5.909   1.278  0.2695  0.8041  0.0735
10236SOL    HW235592   0.159   5.966   1.362  0.1854  1.2342 -0.0896
10237SOL     OW35593   9.507   2.592   0.004 -0.1000 -0.6489  0.3858
10237SOL    HW135594   9.552   2.613   0.090  0.2736  1.6183 -0.3327
10237SOL    HW235595   9.480   2.677  -0.042  1.8016 -1.6598 -2.8283
10238SOL     OW35596   9.569   2.881   0.427  0.4939  0.3365 -0.2261
10238SOL    HW135597   9.572   2.981   0.428 -0.4748  0.3941 -1.3501
10238SOL    HW235598   9.662   2.845   0.433  0.8701  1.3053 -0.0499
10239SOL     OW35599   2.056   4.187   2.934  0.1295 -0.5834  0.1929
10239SOL    HW135600   2.078   4.276   2.975 -1.4559 -0.1975  0.2134
10239SOL    HW235601   2.111   4.175   2.851  1.1292 -0.0484  0.7698
10240SOL     OW35602   1.276   5.917   2.886 -0.3967  0.2924 -0.5139
10240SOL    HW135603   1.291   6.016   2.886  0.8581  0.1321  1.5130
10240SOL    HW235604   1.309   5.878   2.800  0.1257  1.4880 -0.8628
10241SOL     OW35605   7.756   6.447   2.180 -0.4378 -0.1971 -0.0889
10241SOL    HW135606   7.674   6.479   2.132 -0.6285  0.8290  0.8815
10241SOL    HW235607   7.801   6.525   2.224  0.2407 -0.9720  0.6043
10242SOL     OW35608   8.941   5.071   3.742 -0.4797  0.5925  0.0064
10242SOL    HW135609   8.979   5.135   3.809  0.2416  0.2837 -0.1045
10242SOL    HW235610   8.953   5.107   3.650 -1.5249  1.0442  0.0347
10243SOL     OW35611   6.049   9.852   3.747  0.2548 -0.6621 -0.0069
10243SOL    HW135612   6.122   9.843   3.679  2.7493 -2.3990  2.7965
10243SOL    HW235613   6.062   9.937   3.799 -0.0678 -0.7099  0.1567
10244SOL     OW35614   3.179   3.810   3.772  0.3372  0.1744 -0.1661
10244SOL    HW135615   3.107   3.751   3.734  2.1642 -1.4340 -1.2565
10244SOL    HW235616   3.213   3.769   3.857  3.3643 -1.7897 -2.2357
10245SOL     OW35617   9.158   9.538   0.564 -0.1305 -0.1229 -0.5079
10245SOL    HW135618   9.254   9.525   0.540 -0.1100  2.3870 -2.0606
10245SOL    HW235619   9.100   9.497   0.493 -0.1527  0.3331 -0.7596
10246SOL     OW35620   2.176   5.458   3.344  0.5355  0.2796  0.2224
10246SOL    HW135621   2.231   5.512   3.280  0.5953  0.2520  0.2504
10246SOL    HW235622   2.229   5.442   3.427  1.5299 -2.1092 -0.8139
10247SOL     OW35623   0.806   5.501   1.715 -0.0943  0.1776 -0.0914
10247SOL    HW135624   0.809   5.446   1.631  0.8356  2.0256 -1.2908
10247SOL    HW235625   0.711   5.526   1.735 -0.3042 -0.1282 -0.6861
10249SOL     OW35626   0.195   8.330   2.700 -0.0631 -0.0173  0.0014
10249SOL    HW135627   0.194   8.406   2.765  1.8203 -1.0503  1.2796
10249SOL    HW235628   0.275   8.338   2.641 -1.2770  0.4083 -1.6250
10250SOL     OW35629   0.809   1.146   3.049  0.4666  0.1019 -0.4904
10250SOL    HW135630   0.861   1.195   2.979  2.0277 -1.8935 -0.7546
10250SOL    HW235631   0.872   1.094   3.107 -0.9401  0.4392  1.4074
10251SOL     OW35632   9.825   2.484   3.037 -0.6542 -0.0909  0.1838
10251SOL    HW135633   9.744   2.517   2.988  0.5610  3.0548  0.1380
10251SOL    HW235634   9.894   2.454   2.971 -0.1416  1.3617  0.0441
10252SOL     OW35635   9.257   4.441   1.525  0.0424 -0.0913 -0.1180
10252SOL    HW135636   9.282   4.353   1.565  0.6026  0.0237 -0.2053
10252SOL    HW235637   9.338   4.483   1.483 -0.3637  0.1631 -0.6480
10253SOL     OW35638   4.736   0.338   1.359  0.5565 -0.0561 -1.0598
10253SOL    HW135639   4.688   0.381   1.282 -0.7005 -0.7721 -0.6848
10253SOL    HW235640   4.670   0.289   1.416  1.3203  1.4099  1.1205
10254SOL     OW35641   4.834   5.921   1.179 -0.3336  0.0850 -0.5394
10254SOL    HW135642   4.905   5.854   1.157  1.6689  2.4327 -1.2854
10254SOL    HW235643   4.754   5.903   1.121  0.6111 -0.9234 -1.5669
10255SOL     OW35644   2.184   9.090   2.737 -0.4887 -0.1808 -0.8843
10255SOL    HW135645   2.099   9.141   2.739 -0.9071 -0.9114  0.3891
10255SOL    HW235646   2.190   9.037   2.652  0.6624  3.1211 -2.9564
10256SOL     OW35647   9.194   6.179   3.718 -0.1297 -0.5129 -0.5459
10256SOL    HW135648   9.181   6.239   3.639  1.5332  0.4918 -0.0772
10256SOL    HW235649   9.123   6.109   3.718 -0.4584 -0.2161 -2.6362
10257SOL     OW35650   4.739   7.663   1.771  0.6280  0.3815  0.0856
10257SOL    HW135651   4.776   7.603   1.700 -2.7658 -1.9240  0.0962
10257SOL    HW235652   4.667   7.720   1.732 -0.3646  0.0338  1.3713
10258SOL     OW35653   3.789   0.223   1.273  0.0673 -0.1730 -0.3777
10258SOL    HW135654   3.882   0.188   1.268  0.2112  0.0112  0.6905
10258SOL    HW235655   3.746   0.189   1.357 -0.6250  0.2046 -0.5798
10259SOL     OW35656   1.388   8.628   2.181 -0.1872 -0.8589 -0.0264
10259SOL    HW135657   1.359   8.594   2.270 -0.5967  0.8975  0.5408
10259SOL    HW235658   1.353   8.721   2.168  3.4569  0.5991 -0.1389
10262SOL     OW35659   8.372   2.052   3.270  0.0008 -0.0578 -0.4038
10262SOL    HW135660   8.294   2.099   3.230  0.0722  0.5601  0.1785
10262SOL    HW235661   8.378   1.959   3.233 -0.2417  0.3271 -1.4271
10263SOL     OW35662   2.729   8.072   2.335 -0.5018  0.1227  0.0068
10263SOL    HW135663   2.805   8.137   2.337  0.1732 -0.6401 -0.6671
10263SOL    HW235664   2.702   8.050   2.429  2.1552 -1.9429  0.3771
10264SOL     OW35665   8.829   3.354   4.175 -0.2132 -0.1055  0.5440
10264SOL    HW135666   8.894   3.338   4.100 -1.7450 -2.0953 -0.4033
10264SOL    HW235667   8.871   3.413   4.244  2.3491 -0.7989 -0.3808
10266SOL     OW35668   5.375   8.466   3.693  0.6556 -0.0060  0.2616
10266SOL    HW135669   5.311   8.418   3.753  0.0673  0.8906  0.3677
10266SOL    HW235670   5.326   8.498   3.612  1.2076 -0.2568 -0.1725
10268SOL     OW35671   2.147   8.888   2.199  0.2258  0.1212  0.4586
10268SOL    HW135672   2.159   8.966   2.138  2.1226 -1.6798 -1.5346
10268SOL    HW235673   2.051   8.859   2.196 -0.8239  3.1617  2.2782
10270SOL     OW35674   3.334   4.539   2.928 -0.0227 -0.1227 -0.1888
10270SOL    HW135675   3.360   4.587   3.012 -1.2915  0.2261  0.0099
10270SOL    HW235676   3.369   4.445   2.932  0.3554  0.0392  0.5074
10271SOL     OW35677   3.261   0.231   3.283 -0.3812  0.0154  0.2411
10271SOL    HW135678   3.326   0.173   3.233  0.9606  0.7013  1.1846
10271SOL    HW235679   3.180   0.177   3.306  0.0270 -0.9652 -0.5521
10272SOL     OW35680   9.218   0.555   1.982 -0.4253 -0.0376  0.0153
10272SOL    HW135681   9.269   0.624   2.033 -2.2536  1.2947  0.0841
10272SOL    HW235682   9.135   0.531   2.032 -1.2792 -0.1397 -1.4124
10273SOL     OW35683   3.871   9.977   2.841  0.4655 -0.1847 -0.2021
10273SOL    HW135684   3.812  10.042   2.794  0.6034 -0.4946 -0.8203
10273SOL    HW235685   3.935  10.026   2.900 -0.5560  0.1373  0.6445
10274SOL     OW35686   5.441   1.128   4.196 -0.0963  0.8292  0.0184
10274SOL    HW135687   5.521   1.068   4.195  0.1245  0.9793  3.7201
10274SOL    HW235688   5.469   1.220   4.221 -1.1513  1.3426 -0.6636
10275SOL     OW35689   3.665   1.020   3.477 -0.0486  0.0382 -0.0127
10275SOL    HW135690   3.662   1.033   3.576 -0.2342 -1.6464  0.2221
10275SOL    HW235691   3.622   0.932   3.454 -0.3544  0.5896 -1.6214
10276SOL     OW35692   3.666   4.808   4.316 -0.3921  0.2777  0.0774
10276SOL    HW135693   3.619   4.892   4.342 -0.5890  0.7162 -1.6222
10276SOL    HW235694   3.730   4.828   4.241  0.1188 -0.9396  0.1841
10277SOL     OW35695   4.549   0.850   2.067 -0.1573 -0.0739 -0.2874
10277SOL    HW135696   4.558   0.771   2.126 -1.5272 -1.4612 -1.8912
10277SOL    HW235697   4.594   0.832   1.979  2.1814  2.0910  0.3929
10278SOL     OW35698   1.708   0.402   0.095  0.1711  0.5304  0.2801
10278SOL    HW135699   1.736   0.427   0.187  0.2316  3.8015 -0.5795
10278SOL    HW235700   1.786   0.365   0.044  0.6810  0.9310  0.7807
10279SOL     OW35701   4.629   3.548   1.682 -0.8659  0.1199 -0.3086
10279SOL    HW135702   4.708   3.560   1.742 -2.4862  3.1097  1.3593
10279SOL    HW235703   4.645   3.596   1.595 -0.4601 -0.1277 -0.3714
10280SOL     OW35704   9.593   9.187   1.386  0.5144  0.3248 -0.1981
10280SOL    HW135705   9.555   9.095   1.397  0.0594  0.1379 -2.9585
10280SOL    HW235706   9.692   9.184   1.398  0.7904 -0.9811 -2.5726
10281SOL     OW35707   4.810   7.017   3.235 -0.9396 -0.0033  0.2900
10281SOL    HW135708   4.859   7.006   3.321 -1.5584  2.9689  1.0767
10281SOL    HW235709   4.711   7.019   3.254 -1.0916  0.2935 -0.5249
10282SOL     OW35710   1.940   8.844   4.230  0.5723  0.0766  0.2748
10282SOL    HW135711   2.013   8.784   4.196  1.5055  1.3947 -0.1010
10282SOL    HW235712   1.885   8.875   4.153 -1.1630 -1.8818  0.6870
10283SOL     OW35713   9.378   4.434   0.707  0.6150 -0.8334 -0.5070
10283SOL    HW135714   9.461   4.392   0.671  1.4364  2.3190 -2.5616
10283SOL    HW235715   9.319   4.463   0.631  0.2219  1.8656  0.7506
10284SOL     OW35716   7.301   7.719   3.526  0.3096 -0.3536 -0.2855
10284SOL    HW135717   7.214   7.669   3.536  0.6540 -0.9264 -0.0794
10284SOL    HW235718   7.303   7.766   3.439 -0.9381  1.0862  0.4381
10285SOL     OW35719   2.898   5.499   3.028 -0.6936 -0.1588 -0.5066
10285SOL    HW135720   2.918   5.530   3.121 -1.1774 -1.5613  0.0753
10285SOL    HW235721   2.919   5.401   3.020 -1.2789 -0.1950 -1.6791
10286SOL     OW35722   0.448   9.800   0.735 -0.3265  0.1391 -0.7282
10286SOL    HW135723   0.455   9.894   0.768 -0.9701  0.0896 -0.4547
10286SOL    HW235724   0.369   9.791   0.674  0.3326  0.0130 -1.5742
10288SOL     OW35725   7.651   6.530   3.739 -0.0435  0.0911 -0.3236
10288SOL    HW135726   7.617   6.438   3.721  0.3449  0.1772 -1.4866
10288SOL    HW235727   7.575   6.590   3.764 -0.3264 -0.4729  0.1757
10290SOL     OW35728   5.720   9.483   3.686  0.4372 -0.0997  0.3669
10290SOL    HW135729   5.654   9.496   3.612 -0.8093 -1.9880  1.0863
10290SOL    HW235730   5.789   9.416   3.659  0.4923 -0.1352  0.5890
10292SOL     OW35731   3.114   7.083   2.455 -0.7510  0.0631  0.3431
10292SOL    HW135732   3.116   6.987   2.480 -1.5060  0.1130  0.5961
10292SOL    HW235733   3.106   7.091   2.355  3.1193 -0.1367 -0.0865
10294SOL     OW35734   3.203   9.165   1.570  0.1724  0.1356 -0.2723
10294SOL    HW135735   3.180   9.258   1.541  0.6102  0.4572  0.4160
10294SOL    HW235736   3.291   9.139   1.532  1.0845  0.8215  1.3356
10295SOL     OW35737   3.187   8.766   2.711  0.6444 -0.2438  0.4135
10295SOL    HW135738   3.274   8.812   2.693  1.1461 -0.9608  0.9737
10295SOL    HW235739   3.181   8.683   2.656 -0.1354  0.3249 -0.3803
10296SOL     OW35740   3.934   3.715   3.896  0.1600  0.3677  0.1896
10296SOL    HW135741   3.949   3.725   3.994 -0.5197 -0.3644  0.3693
10296SOL    HW235742   3.986   3.637   3.862 -1.1849 -0.6169  0.3485
10298SOL     OW35743   4.831   7.783   1.407  0.0371  0.5276  0.2633
10298SOL    HW135744   4.884   7.698   1.404  2.0299  1.6537  2.4495
10298SOL    HW235745   4.737   7.762   1.435  0.2358 -1.0562 -0.1887
10299SOL     OW35746   4.599   2.274   1.257  0.0689 -0.6887 -0.2647
10299SOL    HW135747   4.557   2.275   1.348 -0.5342 -1.4036 -0.5300
10299SOL    HW235748   4.557   2.343   1.199  1.6699  1.0052  0.5223
10300SOL     OW35749   3.630   4.844   1.718 -0.0346 -0.0332  0.2769
10300SOL    HW135750   3.552   4.887   1.765  0.2854  0.2621  0.5401
10300SOL    HW235751   3.596   4.772   1.658 -0.4213 -0.6631  1.2319
10301SOL     OW35752   0.487   9.591   0.076  0.1670  0.6053 -0.5907
10301SOL    HW135753   0.547   9.517   0.106  1.8697  1.3734 -2.0322
10301SOL    HW235754   0.509   9.674   0.127  1.1835  1.1972 -1.9534
10302SOL     OW35755   1.978   8.534   4.370  0.3004 -0.2243 -0.0890
10302SOL    HW135756   1.988   8.439   4.397  1.9445  0.0249  0.2264
10302SOL    HW235757   1.993   8.593   4.449 -2.0039  0.2824  0.0286
10304SOL     OW35758   2.719   7.631   0.683 -0.7677  0.2226  0.2595
10304SOL    HW135759   2.795   7.566   0.692 -0.6801  0.1923 -0.6033
10304SOL    HW235760   2.709   7.683   0.768  1.2392  1.3237 -0.1437
10305SOL     OW35761   3.218   4.244   0.592  0.5708  0.2441  0.1001
10305SOL    HW135762   3.256   4.328   0.631  0.8812  0.9239 -1.5918
10305SOL    HW235763   3.166   4.267   0.510  1.3730 -1.3124 -0.8641
10306SOL     OW35764   8.176   8.387   4.026  0.2275  0.0893  0.5561
10306SOL    HW135765   8.192   8.351   4.118  1.7710 -0.5949  0.0405
10306SOL    HW235766   8.207   8.320   3.958 -1.4579  0.3433 -0.4759
10307SOL     OW35767   9.395   6.092   1.156 -0.2752 -0.0760 -0.1187
10307SOL    HW135768   9.362   6.020   1.218  1.1498 -0.5375  0.1148
10307SOL    HW235769   9.491   6.109   1.173 -0.3523  1.1786 -0.8914
10308SOL     OW35770   9.065   9.314   1.673  0.2469  0.2925 -0.1907
10308SOL    HW135771   9.078   9.383   1.745  2.3010 -0.6360  0.3859
10308SOL    HW235772   8.968   9.296   1.661 -0.1498  0.6161  2.2471
10309SOL     OW35773   1.104   8.210   2.630  0.5507  0.1866 -1.1165
10309SOL    HW135774   1.065   8.280   2.690 -2.4553 -1.9139 -0.5615
10309SOL    HW235775   1.063   8.217   2.539  0.6824 -0.5003 -1.2295
10310SOL     OW35776   9.892   7.331   0.372 -0.0719 -0.2716 -0.6016
10310SOL    HW135777   9.976   7.366   0.413 -0.5283  0.1199  0.0146
10310SOL    HW235778   9.823   7.316   0.443 -1.5695  2.3919 -1.4247
10311SOL     OW35779   0.862   4.609   2.174 -0.4822  0.0604 -0.1861
10311SOL    HW135780   0.800   4.667   2.120 -0.2938  0.6267  0.1923
10311SOL    HW235781   0.926   4.563   2.113  0.0583  1.0895 -0.4117
10312SOL     OW35782   2.207   3.013   4.279  0.1135 -0.6250  0.4874
10312SOL    HW135783   2.194   3.088   4.215 -1.2932 -1.1160  0.1841
10312SOL    HW235784   2.225   3.050   4.371 -0.0114  0.0767  0.2286
10313SOL     OW35785   5.498   3.484   2.274  0.1457 -0.0235 -0.1541
10313SOL    HW135786   5.456   3.554   2.216 -1.5899  0.5047  1.6874
10313SOL    HW235787   5.485   3.509   2.370  1.0614 -1.9866  0.4934
10314SOL     OW35788   6.080   6.979   2.343  0.3440 -0.3321  0.9244
10314SOL    HW135789   6.052   6.912   2.412 -1.9704 -0.6564 -0.2743
10314SOL    HW235790   6.016   6.976   2.266  0.8542  2.4640  0.3378
10315SOL     OW35791   4.039   1.309   3.449  0.0410 -0.7898  0.3632
10315SOL    HW135792   4.011   1.399   3.480 -0.3459 -0.9748  0.5591
10315SOL    HW235793   4.069   1.314   3.353 -0.4784 -0.5511  0.2119
10316SOL     OW35794   8.855   5.466   0.595 -0.7085  0.0786 -0.1745
10316SOL    HW135795   8.766   5.420   0.587 -1.1654  0.6113  1.5366
10316SOL    HW235796   8.867   5.499   0.689  1.3279 -0.0179 -0.3854
10317SOL     OW35797   1.815   4.865   4.405 -0.4099  0.8113 -0.8365
10317SOL    HW135798   1.748   4.842   4.335  1.4426 -1.2376 -2.0200
10317SOL    HW235799   1.883   4.927   4.367 -0.3130  0.9873 -0.3725
10318SOL     OW35800   5.220   0.929   1.655  0.2721  0.0949 -0.2230
10318SOL    HW135801   5.155   0.978   1.712 -0.4883  0.4675 -1.3974
10318SOL    HW235802   5.296   0.895   1.712 -0.5904  0.2447  1.0273
10319SOL     OW35803   8.157   7.380   0.165 -0.2419  0.7352  0.6417
10319SOL    HW135804   8.192   7.293   0.200 -0.2859  0.4302 -0.0770
10319SOL    HW235805   8.096   7.363   0.088  0.5656  1.4504 -0.1733
10320SOL     OW35806   5.111   3.671   1.441 -0.1888 -0.2390  0.0559
10320SOL    HW135807   5.095   3.768   1.460 -1.2405 -0.3646 -0.1257
10320SOL    HW235808   5.057   3.644   1.361  2.0808 -0.3597 -1.4848
10321SOL     OW35809   3.719   3.435   3.831 -0.2767  0.4733  0.2691
10321SOL    HW135810   3.799   3.472   3.879 -0.0687 -0.4051  0.6134
10321SOL    HW235811   3.741   3.423   3.734  0.7855 -1.8550  0.7463
10322SOL     OW35812   7.080   9.543   1.289 -0.2286 -0.3512  0.1669
10322SOL    HW135813   7.106   9.481   1.215 -0.9554  0.3935 -0.7325
10322SOL    HW235814   7.150   9.614   1.299 -0.6573  0.1911 -0.5681
10323SOL     OW35815   0.328   3.402   0.367 -0.2050 -0.8724 -0.5178
10323SOL    HW135816   0.315   3.485   0.313 -0.1836  0.5099  1.5434
10323SOL    HW235817   0.293   3.323   0.316 -0.5094  0.4277 -2.3720
10324SOL     OW35818   9.465   6.650   2.079  1.0110  0.2556  1.1549
10324SOL    HW135819   9.409   6.598   2.143 -0.9422 -1.0210 -1.4884
10324SOL    HW235820   9.506   6.588   2.012  1.9539  1.6876  0.3757
10325SOL     OW35821   5.284   7.517   1.383  0.1962 -0.2461 -0.1413
10325SOL    HW135822   5.324   7.596   1.428 -2.1864  0.0559  1.5386
10325SOL    HW235823   5.317   7.433   1.427  0.7676 -0.0928 -0.2777
10327SOL     OW35824   5.245   0.318   4.193 -0.2784 -0.1232  0.0482
10327SOL    HW135825   5.333   0.320   4.239  0.3646 -0.1582 -1.1567
10327SOL    HW235826   5.198   0.231   4.213  0.7065 -0.8281 -0.6576
10328SOL     OW35827   7.005   1.228   4.433  0.3161  0.1228  0.1734
10328SOL    HW135828   7.050   1.147   4.395 -0.5601 -0.9586  1.3977
10328SOL    HW235829   7.034   1.309   4.383 -0.5625 -1.2152 -2.5942
10329SOL     OW35830   3.568   2.429   1.604 -0.5752 -0.2159  0.1869
10329SOL    HW135831   3.557   2.490   1.682  0.8932  0.6844 -0.2881
10329SOL    HW235832   3.581   2.483   1.521 -0.3390 -1.1580 -0.3994
10330SOL     OW35833   3.011   0.062   2.425  0.2836  0.2391  0.3000
10330SOL    HW135834   3.017   0.156   2.392 -0.9147  0.3591  0.4015
10330SOL    HW235835   3.103   0.026   2.439  0.7623  1.2090 -0.2618
10331SOL     OW35836   3.723   2.265   1.089  0.0355 -0.5309 -0.4829
10331SOL    HW135837   3.767   2.257   1.178  1.7249 -0.4854 -1.2831
10331SOL    HW235838   3.634   2.309   1.099  0.3433 -0.2657  1.1446
10332SOL     OW35839   2.281   7.732   3.873 -0.0911  0.2317 -0.0216
10332SOL    HW135840   2.372   7.742   3.914 -0.0709 -0.5764  0.1426
10332SOL    HW235841   2.260   7.813   3.818  1.3152 -0.1862 -1.2194
10333SOL     OW35842   2.778   9.774   0.980 -0.2366 -0.2136 -0.3375
10333SOL    HW135843   2.800   9.758   0.884  1.4822 -2.0279  0.3149
10333SOL    HW235844   2.679   9.767   0.994 -0.4728 -0.1448 -1.9285
10334SOL     OW35845   0.459   7.515   2.627 -0.5425 -0.1958 -0.4646
10334SOL    HW135846   0.441   7.445   2.697  0.1113  1.6999  1.6568
10334SOL    HW235847   0.531   7.483   2.566  1.9345 -0.1853  2.3585
10336SOL     OW35848   1.679   0.542   2.012  0.0562  0.3926  0.5406
10336SOL    HW135849   1.625   0.484   2.072  0.9672 -1.3008 -0.2165
10336SOL    HW235850   1.773   0.547   2.046 -0.0718  1.6595  0.7416
10337SOL     OW35851   8.727   4.673   0.236  0.0694  0.0053  0.5726
10337SOL    HW135852   8.663   4.620   0.179 -0.6240 -0.5649  1.8647
10337SOL    HW235853   8.821   4.650   0.210 -0.2186  1.6564 -2.0806
10338SOL     OW35854   2.528   5.026   3.587  0.1494 -0.3142 -0.1717
10338SOL    HW135855   2.617   4.986   3.610  0.0951 -0.7893 -0.7651
10338SOL    HW235856   2.465   4.953   3.558 -0.1775  0.1158 -0.5561
10339SOL     OW35857   4.378   8.367   2.291 -0.1976  0.3231 -0.3805
10339SOL    HW135858   4.357   8.440   2.357  1.5746 -0.1856  0.7916
10339SOL    HW235859   4.387   8.407   2.200  3.1041  2.0347  0.5921
10342SOL     OW35860   2.927   9.193   0.654 -0.2232 -0.3291 -0.1141
10342SOL    HW135861   2.983   9.185   0.571  0.3879  0.2453  0.2401
10342SOL    HW235862   2.830   9.180   0.630  0.1842 -3.0034 -0.4634
10343SOL     OW35863   7.799   0.385   3.580  0.0245  0.0166 -0.1198
10343SOL    HW135864   7.807   0.412   3.676  1.2701 -1.3214  0.1583
10343SOL    HW235865   7.882   0.410   3.531 -0.4286  0.2889 -0.7538
10344SOL     OW35866   1.541   1.058   3.534 -0.0549  0.1999  0.4835
10344SOL    HW135867   1.521   0.985   3.599 -1.4078  0.5275  0.4658
10344SOL    HW235868   1.464   1.067   3.470  0.2693  1.3801  0.2450
10345SOL     OW35869   3.889   8.548   1.401  0.4688  0.1045 -0.1368
10345SOL    HW135870   3.952   8.625   1.411 -0.2138  0.8099 -1.0912
10345SOL    HW235871   3.803   8.580   1.359 -0.2355 -0.9764  0.4475
10346SOL     OW35872   8.356   8.988   3.436 -0.1207 -0.4927  0.4394
10346SOL    HW135873   8.402   8.972   3.524  0.8186 -0.9623 -0.1263
10346SOL    HW235874   8.421   8.972   3.361 -0.4527  1.5408 -0.3050
10347SOL     OW35875   2.965   2.555   0.990  0.0080 -0.3879  0.8815
10347SOL    HW135876   2.950   2.524   1.084  0.2040  0.2755  1.1335
10347SOL    HW235877   2.924   2.646   0.978 -0.2107 -0.5650  0.2619
10350SOL     OW35878   8.647   7.631   3.619  0.0274  0.3561  0.2956
10350SOL    HW135879   8.636   7.608   3.523 -1.0430  0.0404  0.4894
10350SOL    HW235880   8.584   7.706   3.643  0.7134  0.8430  0.6074
10354SOL     OW35881   1.058   8.870   3.879  1.1438  0.2422 -0.1441
10354SOL    HW135882   1.093   8.956   3.843  1.4220  0.0573 -0.3188
10354SOL    HW235883   1.099   8.794   3.829  3.7745 -0.1204  2.4523
10356SOL     OW35884   6.131   1.221   2.070 -0.5539  0.1039  0.2099
10356SOL    HW135885   6.075   1.302   2.049 -1.2954 -0.9419 -2.0399
10356SOL    HW235886   6.071   1.145   2.092 -0.1257 -1.2746 -3.1013
10357SOL     OW35887   1.452   6.145   4.055 -0.0536 -0.4898 -0.1197
10357SOL    HW135888   1.451   6.134   3.956 -1.3735 -1.1575 -0.0461
10357SOL    HW235889   1.490   6.235   4.078 -1.8235  0.5960 -1.3356
10358SOL     OW35890   8.015   2.092   3.232  0.2083 -0.2578 -0.5226
10358SOL    HW135891   8.054   2.020   3.175 -1.8608 -0.4225 -1.7711
10358SOL    HW235892   7.954   2.051   3.300 -0.2645  0.2284 -0.6489
10360SOL     OW35893   8.556   2.718   0.427  0.0731  0.1474  0.2728
10360SOL    HW135894   8.620   2.769   0.370  0.8722  1.7431  2.5086
10360SOL    HW235895   8.520   2.779   0.498 -0.7907 -1.8042  1.5389
10361SOL     OW35896   4.388   2.767   1.775  0.2226  0.1341 -0.0792
10361SOL    HW135897   4.478   2.801   1.802  0.1205  1.5077 -1.4201
10361SOL    HW235898   4.318   2.831   1.807 -0.3575 -1.2513  1.5273
10363SOL     OW35899   5.643   9.913   2.972 -0.3505  0.0754  0.4138
10363SOL    HW135900   5.626   9.943   3.066 -1.0514 -0.0393  0.3320
10363SOL    HW235901   5.734   9.872   2.966 -0.8027 -1.1244  1.3604
10366SOL     OW35902   3.438   2.858   2.955 -0.0361  0.0417 -0.4830
10366SOL    HW135903   3.487   2.793   2.897  1.0638  1.3258 -1.0156
10366SOL    HW235904   3.347   2.876   2.917  0.1763 -0.1484 -1.0739
10367SOL     OW35905   2.027   8.140   0.642 -0.0830 -0.0048 -0.0683
10367SOL    HW135906   2.082   8.172   0.719  1.3871  0.0729 -1.1440
10367SOL    HW235907   2.086   8.119   0.565 -1.5515 -0.0302 -1.2044
10368SOL     OW35908   7.727   1.663   1.876  0.4104 -0.0165  0.0273
10368SOL    HW135909   7.766   1.657   1.968  0.2216  1.4405  0.2051
10368SOL    HW235910   7.801   1.676   1.810  0.4480  0.0886  0.0892
10369SOL     OW35911   4.261   1.169   3.543 -0.4938  0.2122  0.4251
10369SOL    HW135912   4.178   1.221   3.522 -0.8900 -0.1114  1.1686
10369SOL    HW235913   4.337   1.232   3.555 -0.9596  0.6271  1.2545
10370SOL     OW35914   3.982   6.163   1.546  0.3114 -0.0575  0.2004
10370SOL    HW135915   4.019   6.115   1.625 -0.2771  0.2447  0.6596
10370SOL    HW235916   3.904   6.113   1.510 -1.0450  1.1628  1.4040
10371SOL     OW35917   8.741   4.913   1.311  1.0124 -0.6662 -0.2892
10371SOL    HW135918   8.645   4.925   1.337  1.0468 -1.5254  0.2706
10371SOL    HW235919   8.746   4.853   1.231  1.1287 -1.6631  0.4402
10372SOL     OW35920   9.688   1.515   1.505 -0.3942  0.1816 -0.3798
10372SOL    HW135921   9.648   1.445   1.563  0.1723 -0.0572 -0.2746
10372SOL    HW235922   9.629   1.531   1.426 -2.2796  2.0668  1.3523
10373SOL     OW35923   1.411   4.340   0.187  0.3055 -0.3266  0.5459
10373SOL    HW135924   1.337   4.334   0.255 -1.5463  0.6874 -1.3160
10373SOL    HW235925   1.476   4.266   0.202 -1.4421 -1.6503  1.8259
10375SOL     OW35926   8.379   0.759   2.083  0.1043  0.2879 -0.3633
10375SOL    HW135927   8.311   0.687   2.082  0.8012 -0.3914  0.4595
10375SOL    HW235928   8.424   0.762   2.172  2.4438 -0.4926 -1.4780
10376SOL     OW35929   9.868   1.776   2.475 -0.4055 -0.2214 -0.3569
10376SOL    HW135930   9.821   1.843   2.418 -3.5879  0.7382  3.2000
10376SOL    HW235931   9.833   1.684   2.455 -1.9882  0.1893  0.4459
10377SOL     OW35932   9.415   9.671   1.806  0.5319 -0.4470  0.3623
10377SOL    HW135933   9.463   9.754   1.779 -0.7309 -0.4557 -2.1059
10377SOL    HW235934   9.330   9.663   1.753 -0.2946 -2.3636  1.8914
10378SOL     OW35935   8.699   4.476   3.103 -0.5772 -0.7038 -0.1750
10378SOL    HW135936   8.601   4.476   3.121 -0.5982  0.7706 -0.2254
10378SOL    HW235937   8.746   4.529   3.175 -0.0459  0.2992 -1.2360
10379SOL     OW35938   8.007   1.291   0.650  0.1898  0.5238 -0.2023
10379SOL    HW135939   7.936   1.360   0.634 -0.7400 -0.4401 -0.2412
10379SOL    HW235940   7.965   1.202   0.663  1.3148  0.1710  1.1618
10382SOL     OW35941   8.212   4.740   0.020  0.2993  0.3049  0.0072
10382SOL    HW135942   8.287   4.679   0.047  0.5180  0.0407 -1.1519
10382SOL    HW235943   8.192   4.726  -0.077  0.5825  2.3556 -0.3572
10383SOL     OW35944   2.554   3.319   4.338 -1.2366 -0.3860 -0.5639
10383SOL    HW135945   2.535   3.412   4.306 -0.1776  0.2819  0.7012
10383SOL    HW235946   2.645   3.316   4.380 -1.3640 -1.9437 -0.3601
10384SOL     OW35947   5.587   1.459   3.568  0.3481 -0.0535  0.2001
10384SOL    HW135948   5.621   1.526   3.503  0.6448 -0.3668  0.0320
10384SOL    HW235949   5.487   1.453   3.560  0.2255  1.0011  0.8331
10385SOL     OW35950   8.497   6.708   0.294 -0.0031  0.3113 -0.4862
10385SOL    HW135951   8.463   6.615   0.284 -0.3390  0.4619 -0.7919
10385SOL    HW235952   8.510   6.748   0.203 -1.9532  1.3051 -0.3661
10386SOL     OW35953   8.590   1.912   3.151  0.1215  0.1722  0.0748
10386SOL    HW135954   8.587   1.850   3.072  0.0673 -0.6390  0.7034
10386SOL    HW235955   8.620   1.861   3.232  2.2848  1.4764  0.1344
10387SOL     OW35956   7.097   8.346   2.821 -0.4357 -0.3233 -0.0015
10387SOL    HW135957   7.171   8.402   2.858 -1.6942 -0.5523  2.9913
10387SOL    HW235958   7.098   8.351   2.721  1.9604  1.7750  0.0824
10388SOL     OW35959   4.324   6.394   1.636 -0.1535  0.6022  0.3285
10388SOL    HW135960   4.296   6.489   1.623  0.9902  0.7462 -1.1599
10388SOL    HW235961   4.407   6.391   1.692 -0.4428  0.4491  0.7506
10390SOL     OW35962   1.783   1.041   3.044  0.7185 -0.0188 -0.2713
10390SOL    HW135963   1.706   1.005   2.991 -1.2512  3.2369  0.1694
10390SOL    HW235964   1.756   1.049   3.140  1.3573  1.6998 -0.2106
10391SOL     OW35965   6.379   9.797   1.030  0.4162  0.3823 -0.2356
10391SOL    HW135966   6.358   9.877   0.973  2.7888  1.1729 -0.0501
10391SOL    HW235967   6.458   9.749   0.992 -1.1044 -2.0223 -0.4471
10392SOL     OW35968   3.778   1.686   0.378 -0.6227  0.7652  0.4848
10392SOL    HW135969   3.826   1.772   0.397 -1.2206  0.6889  2.4616
10392SOL    HW235970   3.838   1.625   0.326 -0.0099  2.1739 -0.4860
10394SOL     OW35971   2.003   7.559   2.858  0.2748 -0.3634 -0.1858
10394SOL    HW135972   2.030   7.631   2.921  0.2179 -0.3092 -0.2233
10394SOL    HW235973   2.069   7.484   2.862  1.2150  0.3932 -1.3306
10395SOL     OW35974   3.519   8.546   0.050  0.6497 -0.3103  0.0955
10395SOL    HW135975   3.610   8.587   0.047 -0.0492  1.3231  0.4167
10395SOL    HW235976   3.489   8.538   0.145  0.2946 -0.4775 -0.0291
10396SOL     OW35977   8.643   7.499   1.017 -0.2402 -0.2221 -0.3693
10396SOL    HW135978   8.576   7.427   0.998 -1.7686  1.4564 -1.5169
10396SOL    HW235979   8.735   7.464   1.000 -0.8655 -2.3110  0.4112
10398SOL     OW35980   9.680   4.029   0.731 -0.0576  0.0278 -0.0405
10398SOL    HW135981   9.766   4.072   0.705 -0.9159  0.4370 -2.3058
10398SOL    HW235982   9.605   4.095   0.723 -0.9358 -1.0004 -0.4549
10399SOL     OW35983   4.773   8.612   0.042  0.1025  0.2118 -0.4347
10399SOL    HW135984   4.747   8.613  -0.055 -1.7944 -0.1570  0.0523
10399SOL    HW235985   4.841   8.683   0.058  1.1432 -0.3285 -2.2128
10400SOL     OW35986   2.334   0.615   3.850 -0.7351 -0.7228  0.0855
10400SOL    HW135987   2.285   0.682   3.794 -0.2186  0.5968  1.1955
10400SOL    HW235988   2.430   0.613   3.822  0.0002  1.4659  2.2577
10401SOL     OW35989   9.276   1.954   2.685 -0.1852 -0.2586  0.0129
10401SOL    HW135990   9.234   2.043   2.698 -0.8833 -0.7713  1.3482
10401SOL    HW235991   9.375   1.961   2.698 -0.2872  0.2329  0.5374
10402SOL     OW35992   1.734   5.910   1.641 -0.0599 -0.2929  0.1017
10402SOL    HW135993   1.750   5.818   1.607  0.5761  0.1799 -0.8927
10402SOL    HW235994   1.821   5.956   1.658 -0.3574  0.5654 -0.6303
10403SOL     OW35995   3.267   0.744   0.657  0.6473  0.5581  0.2660
10403SOL    HW135996   3.333   0.813   0.628  3.2563 -1.7742  0.4357
10403SOL    HW235997   3.261   0.673   0.587  1.2013 -1.1667  1.9150
10404SOL     OW35998   1.922   1.823   3.530  0.7942  0.3445  0.2691
10404SOL    HW135999   1.896   1.888   3.602 -2.1500  0.4105 -0.7878
10404SOL    HW236000   1.841   1.773   3.499  2.7999 -3.0880  0.2691
10405SOL     OW36001   8.604   4.927   2.054  0.5266  0.3352  0.0847
10405SOL    HW136002   8.675   4.871   2.012  0.7205 -1.6055  2.9182
10405SOL    HW236003   8.522   4.925   1.996  1.4575 -0.5712 -1.2343
10406SOL     OW36004   7.423   4.735   0.449  0.3181  0.0218  0.6141
10406SOL    HW136005   7.426   4.786   0.364 -1.9562 -1.6491 -0.5415
10406SOL    HW236006   7.483   4.656   0.444 -0.4436 -0.5384  0.2242
10407SOL     OW36007   3.127   9.504   0.841  0.1316 -0.1839 -0.7939
10407SOL    HW136008   3.117   9.411   0.877 -1.1900 -0.2837 -1.3975
10407SOL    HW236009   3.128   9.502   0.741  0.5198  0.4161 -0.8086
10408SOL     OW36010   6.197   1.208   2.661  0.4126 -0.3359 -0.1640
10408SOL    HW136011   6.198   1.289   2.602  2.7918 -0.0554  0.1976
10408SOL    HW236012   6.186   1.236   2.756 -1.1732 -0.6286 -0.2506
10409SOL     OW36013   0.600   3.660   3.524 -0.2769  0.0569  0.1542
10409SOL    HW136014   0.595   3.631   3.620 -2.4984 -1.9285 -0.5360
10409SOL    HW236015   0.510   3.691   3.493  0.8378  2.5477 -0.7703
10411SOL     OW36016   1.033   4.482   3.366 -0.1004  0.2005 -0.2079
10411SOL    HW136017   0.980   4.508   3.285 -0.5419 -0.2433 -0.0634
10411SOL    HW236018   1.061   4.564   3.415 -2.2216  0.4087  0.7190
10412SOL     OW36019   1.518   2.967   2.535 -0.3437 -0.2281  0.0959
10412SOL    HW136020   1.570   2.904   2.593 -0.7099 -1.1384 -0.5539
10412SOL    HW236021   1.489   2.919   2.452 -0.6101  0.8062 -0.4137
10413SOL     OW36022   3.491   2.703   3.173 -0.1994  0.3760 -0.1491
10413SOL    HW136023   3.463   2.764   3.099  0.8243 -0.1199 -0.9634
10413SOL    HW236024   3.589   2.713   3.189 -0.3561  0.2286  0.9146
10414SOL     OW36025   0.801   7.719   3.260 -0.0655 -0.1317 -0.4388
10414SOL    HW136026   0.707   7.727   3.228  0.5530  0.0649 -2.2426
10414SOL    HW236027   0.844   7.809   3.259 -0.2817  0.0164  1.7634
10415SOL     OW36028   4.538   3.313   0.146 -0.1706 -0.6446  0.2594
10415SOL    HW136029   4.494   3.401   0.167  1.2937  0.1210  0.1606
10415SOL    HW236030   4.607   3.326   0.075 -1.3133 -2.2438 -1.1892
10416SOL     OW36031   3.170   0.831   1.430 -0.0034  0.4388 -0.1294
10416SOL    HW136032   3.266   0.826   1.461  1.0628  2.1355 -2.9972
10416SOL    HW236033   3.140   0.740   1.403  0.5556 -0.2381  1.4430
10417SOL     OW36034   4.425   1.319   2.040  0.3661 -0.1338 -0.5848
10417SOL    HW136035   4.333   1.356   2.023  0.3037  0.2102  0.4592
10417SOL    HW236036   4.438   1.237   1.984 -1.5265 -1.6289  1.0787
10419SOL     OW36037   0.776   4.884   1.361  0.1259 -0.0246 -0.1601
10419SOL    HW136038   0.698   4.821   1.355  0.8598 -0.9165 -0.4431
10419SOL    HW236039   0.754   4.958   1.425 -0.7077 -0.6162  0.2547
10420SOL     OW36040   0.193   3.225   0.197  0.0661  0.5353 -0.3299
10420SOL    HW136041   0.125   3.175   0.143 -1.5924  2.5102 -0.1081
10420SOL    HW236042   0.275   3.241   0.141 -0.3233 -0.3183 -1.1669
10421SOL     OW36043   2.967   1.049   0.032 -0.2712  0.4701 -0.0299
10421SOL    HW136044   2.958   1.134  -0.020  1.4194  1.2506  0.8978
10421SOL    HW236045   3.038   0.992  -0.010 -2.0357 -0.9244 -1.1882
10422SOL     OW36046   1.453   6.363   1.015  0.3918 -0.3623  0.1694
10422SOL    HW136047   1.446   6.334   1.110  1.8558  0.8614  0.6442
10422SOL    HW236048   1.533   6.420   1.002  1.1444 -1.8577 -2.1485
10423SOL     OW36049   9.415   1.626   2.504 -0.1801 -0.2368  0.0338
10423SOL    HW136050   9.491   1.656   2.447  0.2814  0.4428  1.0060
10423SOL    HW236051   9.350   1.702   2.515 -0.6336 -0.5892 -0.1768
10424SOL     OW36052   2.217   8.157   2.764 -0.1579  0.0840 -0.1269
10424SOL    HW136053   2.118   8.157   2.778 -0.0352 -2.1844  1.0212
10424SOL    HW236054   2.263   8.161   2.852  0.7354 -0.8787 -0.5369
10425SOL     OW36055   1.366   2.615   1.040  0.1639 -0.1672 -0.0476
10425SOL    HW136056   1.282   2.563   1.025 -0.6586  1.3640 -0.9201
10425SOL    HW236057   1.440   2.575   0.986  0.1399 -1.8678  1.1647
10426SOL     OW36058   8.501   5.841   2.665 -0.2853  0.9907  0.0461
10426SOL    HW136059   8.412   5.840   2.709 -1.3835  0.6068 -2.1098
10426SOL    HW236060   8.521   5.751   2.627  1.6056  0.7251  1.5714
10427SOL     OW36061   0.729   0.790   0.914 -0.0065  0.0466  0.0433
10427SOL    HW136062   0.811   0.807   0.859 -0.2817  0.0519 -0.3682
10427SOL    HW236063   0.691   0.701   0.891  0.1601 -0.1700  0.5890
10428SOL     OW36064   4.986   7.566   3.035 -0.2102 -0.2021  0.3112
10428SOL    HW136065   4.887   7.571   3.024 -0.1725  0.5704  0.2276
10428SOL    HW236066   5.008   7.523   3.122 -0.6560  1.2584  1.1635
10430SOL     OW36067   2.010   5.862   4.348 -0.0693 -0.8182 -0.0857
10430SOL    HW136068   1.954   5.941   4.373 -0.6047 -1.5988  1.2333
10430SOL    HW236069   1.963   5.778   4.373  1.0803 -1.5236 -0.2350
10431SOL     OW36070   0.430   1.758   2.829  0.5010 -0.1035 -0.0005
10431SOL    HW136071   0.501   1.728   2.766  0.6222  2.6489 -1.2446
10431SOL    HW236072   0.341   1.729   2.794  0.8094 -1.5534  0.3741
10432SOL     OW36073   4.713   8.081   1.521  0.5191 -0.5430  0.0715
10432SOL    HW136074   4.734   8.178   1.507  0.0949 -0.0085  2.8654
10432SOL    HW236075   4.640   8.054   1.459  2.5581  0.1538 -2.7212
10433SOL     OW36076   4.195   8.956   0.534 -0.0921  0.4270  0.2345
10433SOL    HW136077   4.135   8.983   0.459 -0.0276  1.3665  0.5193
10433SOL    HW236078   4.168   8.866   0.568 -0.9568  0.5848 -0.0402
10436SOL     OW36079   3.122   0.550   0.435  0.3393  0.3901 -0.5037
10436SOL    HW136080   3.038   0.527   0.484  1.1674 -0.1757  0.6630
10436SOL    HW236081   3.107   0.632   0.379 -0.0080  2.3846  2.4030
10437SOL     OW36082   8.533   3.701   3.464 -0.7956  0.2752 -0.2475
10437SOL    HW136083   8.625   3.670   3.489 -0.0480  2.3094 -0.3607
10437SOL    HW236084   8.477   3.711   3.546 -0.7729 -0.5587 -0.1342
10438SOL     OW36085   1.953   3.000   1.867  0.1137 -0.3988 -0.3603
10438SOL    HW136086   2.024   2.931   1.879 -0.4844 -0.5602  2.5427
10438SOL    HW236087   1.982   3.086   1.909 -0.5379  0.1302 -0.9843
10439SOL     OW36088   3.921   3.530   2.682  0.2998  0.3434  0.0154
10439SOL    HW136089   3.824   3.533   2.706  0.1228  3.0670 -0.9326
10439SOL    HW236090   3.975   3.515   2.765 -0.7793  1.2507  0.8940
10441SOL     OW36091   7.647   2.522   0.007 -0.2574 -0.0588  0.8425
10441SOL    HW136092   7.644   2.599  -0.056  0.0560 -0.5321  0.2457
10441SOL    HW236093   7.682   2.441  -0.040 -1.7626 -0.9005  1.1255
10443SOL     OW36094   4.956   3.577   1.245  0.2374  0.4008 -0.0462
10443SOL    HW136095   4.867   3.544   1.275  1.4810 -1.7576  1.4152
10443SOL    HW236096   4.989   3.522   1.168  0.0551  1.5771 -0.9774
10444SOL     OW36097   9.647   5.258   1.018 -0.0628  0.5224 -0.0793
10444SOL    HW136098   9.588   5.324   0.970 -0.7470 -0.6050 -0.8105
10444SOL    HW236099   9.742   5.273   0.990 -0.0141  2.1812  0.9115
10445SOL     OW36100   6.483   7.126   4.026 -0.2123  0.5017  0.5845
10445SOL    HW136101   6.417   7.168   4.090 -0.0737 -0.1344  1.1537
10445SOL    HW236102   6.436   7.099   3.942 -0.6776  0.1026  0.9680
10446SOL     OW36103   8.598   0.509   1.941 -0.4422 -0.6883 -0.0361
10446SOL    HW136104   8.587   0.454   2.024  2.4190  1.3356  1.7677
10446SOL    HW236105   8.559   0.600   1.957 -1.4416 -0.8240 -1.5674
10447SOL     OW36106   8.916   5.223   3.480 -0.0899 -0.2511  0.3194
10447SOL    HW136107   8.904   5.306   3.426 -1.4816 -1.0917 -0.7124
10447SOL    HW236108   9.002   5.228   3.531  0.0501  1.6237 -0.0553
10449SOL     OW36109   7.284   9.718   2.180 -0.1026  0.1175 -0.2109
10449SOL    HW136110   7.332   9.723   2.093  0.7509 -1.2304  0.1678
10449SOL    HW236111   7.186   9.706   2.164 -0.0154  0.4315 -0.9780
10450SOL     OW36112   7.628   1.267   0.201 -0.9171 -0.1744  0.8945
10450SOL    HW136113   7.649   1.299   0.294  0.9482  0.2154  0.3650
10450SOL    HW236114   7.597   1.344   0.146 -0.7946 -0.1634  0.8421
10451SOL     OW36115   8.560   8.516   3.610  0.3075  0.6527 -0.3863
10451SOL    HW136116   8.466   8.508   3.576  0.0570  1.6965  0.0400
10451SOL    HW236117   8.597   8.425   3.628 -0.9044  0.2619  0.2011
10452SOL     OW36118   9.756   0.507   1.333 -0.4688 -0.4113 -0.3607
10452SOL    HW136119   9.836   0.452   1.360 -0.4823  0.6092  1.8455
10452SOL    HW236120   9.766   0.534   1.237  1.6083 -0.7055 -0.2638
10453SOL     OW36121   7.642   1.320   3.031  0.2962  0.2583 -0.4610
10453SOL    HW136122   7.682   1.254   2.968  0.1786 -0.7169  0.4730
10453SOL    HW236123   7.641   1.411   2.989 -0.5153 -0.5290 -2.1664
10454SOL     OW36124   2.192   4.789   1.044  0.0735 -0.0217  0.6028
10454SOL    HW136125   2.262   4.717   1.043 -0.5751 -0.6583 -0.9012
10454SOL    HW236126   2.218   4.859   1.110  3.0554  0.6485 -1.1670
10455SOL     OW36127   8.773   4.297   0.099  0.4563 -1.0698 -0.1629
10455SOL    HW136128   8.821   4.280   0.186  0.3087 -0.6845 -0.0043
10455SOL    HW236129   8.748   4.210   0.058  3.2319 -1.3766 -1.3300
10456SOL     OW36130   3.337   3.222   2.666  0.3582 -0.0162 -0.0966
10456SOL    HW136131   3.430   3.216   2.630  0.1817 -0.4158 -0.4973
10456SOL    HW236132   3.338   3.206   2.765  0.6510 -0.5879 -0.1890
10457SOL     OW36133   0.473   9.952   1.843 -0.5678  0.0041 -0.3514
10457SOL    HW136134   0.485   9.961   1.942 -0.2178  1.4258 -0.5099
10457SOL    HW236135   0.516  10.030   1.797 -1.3245 -0.2939 -1.5852
10458SOL     OW36136   2.797   7.519   1.976 -0.2329 -0.3890  0.1413
10458SOL    HW136137   2.713   7.574   1.976 -0.7220 -1.1317  0.8538
10458SOL    HW236138   2.876   7.579   1.990 -0.6924  0.2363  0.0778
10459SOL     OW36139   7.964   1.457   3.335 -0.8137  0.1205 -0.5364
10459SOL    HW136140   7.948   1.392   3.410 -1.0302  1.2111  0.3798
10459SOL    HW236141   7.901   1.437   3.260 -1.5114 -0.1598  0.1172
10460SOL     OW36142   9.303   3.418   1.636 -0.4108 -0.5891 -0.5389
10460SOL    HW136143   9.396   3.451   1.652 -0.1567 -1.6768  0.2918
10460SOL    HW236144   9.270   3.370   1.717 -2.1753  0.8600 -0.3440
10463SOL     OW36145   0.392   8.349   3.312 -0.3988 -0.4543 -0.6310
10463SOL    HW136146   0.440   8.433   3.337  0.0353 -1.1791  1.0536
10463SOL    HW236147   0.326   8.369   3.239 -1.4559  1.7010  0.8451
10464SOL     OW36148   2.409   3.275   1.177  0.0571  0.6567  0.3848
10464SOL    HW136149   2.366   3.195   1.218  1.0693  0.0768  0.3126
10464SOL    HW236150   2.362   3.298   1.091 -1.0985  0.9679  1.0922
10465SOL     OW36151   1.650   4.585   0.787 -0.1194  0.0461 -0.1984
10465SOL    HW136152   1.657   4.603   0.689  0.0480  1.5965  0.0890
10465SOL    HW236153   1.579   4.515   0.803 -0.4376  0.0892 -1.3794
10466SOL     OW36154   9.667   1.293   0.999 -0.1594 -0.0189 -0.1722
10466SOL    HW136155   9.767   1.300   1.005 -0.0994 -1.2133  0.1609
10466SOL    HW236156   9.632   1.368   0.942  0.9392  0.3078 -0.4209
10467SOL     OW36157   8.124   2.570   1.769  0.4584  0.1035  0.7773
10467SOL    HW136158   8.175   2.581   1.683 -1.2221 -2.7046 -0.6601
10467SOL    HW236159   8.036   2.616   1.762 -0.2065 -1.1823  0.4829
10468SOL     OW36160   0.995   5.261   3.565  0.0764 -0.4679 -0.0631
10468SOL    HW136161   1.049   5.346   3.567 -0.9536  0.2102 -0.3805
10468SOL    HW236162   0.918   5.273   3.501  0.0913 -1.7476 -0.3198
10469SOL     OW36163   6.737   9.400   2.197 -0.1572  0.9321 -0.4194
10469SOL    HW136164   6.833   9.374   2.189 -0.2383  0.4073  0.2622
10469SOL    HW236165   6.689   9.372   2.114 -0.0713 -0.4007 -0.0423
10470SOL     OW36166   0.613   6.448   1.788 -0.0491 -0.1170  0.2375
10470SOL    HW136167   0.521   6.454   1.827  0.0992 -2.1078  0.9456
10470SOL    HW236168   0.608   6.465   1.689 -1.0282  0.7810  0.4295
10473SOL     OW36169   8.495   7.652   0.346  0.2490  0.3311  0.2604
10473SOL    HW136170   8.417   7.687   0.293  1.3861  1.3057 -0.7820
10473SOL    HW236171   8.570   7.718   0.343  1.2149 -0.7154  1.0441
10474SOL     OW36172   8.738   6.562   3.144  0.2849 -0.4237  0.1716
10474SOL    HW136173   8.767   6.569   3.240 -0.6753 -1.4191  0.5467
10474SOL    HW236174   8.671   6.489   3.135 -0.8371  0.7326 -0.9980
10475SOL     OW36175   2.963   9.374   3.882  0.0701  0.7878 -0.0387
10475SOL    HW136176   3.055   9.360   3.847  0.2818  0.2826  0.7015
10475SOL    HW236177   2.960   9.349   3.979 -1.0207  0.0322 -0.2537
10476SOL     OW36178   8.340   7.781   3.205 -0.2040  0.9365 -0.5640
10476SOL    HW136179   8.289   7.703   3.168  2.0549  0.2472 -2.2848
10476SOL    HW236180   8.316   7.864   3.154 -1.5196  1.1207  0.3248
10477SOL     OW36181   2.045   4.868   1.449  0.2661 -0.5550  0.6132
10477SOL    HW136182   2.001   4.873   1.539  0.1483  1.3004  0.4807
10477SOL    HW236183   1.991   4.919   1.382  1.6132  0.1628  0.0444
10478SOL     OW36184   8.549   5.470   3.148  0.1588  0.4561 -0.0208
10478SOL    HW136185   8.527   5.377   3.180 -0.9149  1.5168  2.4355
10478SOL    HW236186   8.613   5.464   3.072  0.0826 -2.3096  0.0586
10480SOL     OW36187   4.318   1.057   3.784  0.4415  0.0045 -0.1233
10480SOL    HW136188   4.309   1.110   3.700 -0.1618 -0.2308 -0.2111
10480SOL    HW236189   4.258   1.095   3.854  1.0383  0.2766  0.2398
10481SOL     OW36190   2.328   7.854   3.161  0.2885  0.0033 -0.4330
10481SOL    HW136191   2.420   7.856   3.122  1.0379 -0.3081  1.2986
10481SOL    HW236192   2.297   7.947   3.180 -0.6574  0.2799 -3.0108
10483SOL     OW36193   0.371   8.349   1.284 -0.7765 -0.0886  0.4181
10483SOL    HW136194   0.463   8.376   1.257 -0.0787 -1.3421  1.4710
10483SOL    HW236195   0.309   8.426   1.273  0.2579  0.5606 -0.9638
10486SOL     OW36196   0.386   9.195   3.244  0.2269 -0.2865  0.3758
10486SOL    HW136197   0.393   9.095   3.236 -0.2170 -0.2079 -1.0862
10486SOL    HW236198   0.294   9.225   3.221  0.2521  0.4369  1.1825
10487SOL     OW36199   2.082   8.894   2.513  0.5068 -0.4785  0.4960
10487SOL    HW136200   2.086   8.810   2.566  2.0534 -1.4878 -1.1515
10487SOL    HW236201   1.999   8.894   2.457  0.5974 -1.0184  0.3569
10488SOL     OW36202   7.895   7.126   3.507  0.1634 -0.3962 -0.3962
10488SOL    HW136203   7.837   7.146   3.586  1.2097  1.9263 -0.1670
10488SOL    HW236204   7.981   7.086   3.537 -0.0142 -0.8220 -0.4620
10489SOL     OW36205   3.763   5.917   2.651 -0.4038  0.1191 -0.6438
10489SOL    HW136206   3.780   6.012   2.677 -0.6810 -0.7870  3.1811
10489SOL    HW236207   3.698   5.876   2.715  0.0156 -2.7794 -1.9962
10491SOL     OW36208   9.967   8.750   0.949 -0.3697  0.1037 -0.6501
10491SOL    HW136209   9.900   8.723   1.018 -0.4227 -0.9652 -1.1213
10491SOL    HW236210  10.054   8.771   0.994 -0.3989 -0.5960 -0.2643
10492SOL     OW36211   6.034   9.862   2.648  0.7887 -0.1177 -0.2124
10492SOL    HW136212   6.074   9.882   2.559  3.0706 -0.2329  0.7582
10492SOL    HW236213   6.107   9.846   2.715 -0.8882 -0.5418  1.5644
10493SOL     OW36214   7.259   1.901   2.362 -0.1390 -0.2899  0.3366
10493SOL    HW136215   7.313   1.961   2.421  0.0749  0.2402 -0.3950
10493SOL    HW236216   7.192   1.851   2.418  0.3446 -0.1092  1.0844
10494SOL     OW36217   9.184   6.293   3.067 -0.5257 -0.1964  0.5409
10494SOL    HW136218   9.087   6.300   3.047 -0.1258  0.2667 -1.2603
10494SOL    HW236219   9.210   6.197   3.075 -0.6972 -0.4019 -1.1842
10495SOL     OW36220   3.609   4.846   0.976 -0.0973 -0.2011  0.0092
10495SOL    HW136221   3.536   4.910   1.000  0.1139 -0.3752  1.1504
10495SOL    HW236222   3.634   4.858   0.880 -1.3865  0.0961 -0.2968
10496SOL     OW36223   3.517   5.991   0.555 -0.4157 -0.1475 -0.2582
10496SOL    HW136224   3.575   6.025   0.630 -1.1352 -0.2933  0.3755
10496SOL    HW236225   3.495   6.066   0.493  0.6236 -0.1350 -0.6132
10497SOL     OW36226   2.467   6.828   1.461 -0.2439  0.0685 -0.1748
10497SOL    HW136227   2.428   6.749   1.415 -0.0128  0.4093 -0.9637
10497SOL    HW236228   2.393   6.887   1.493 -0.3989  0.2937 -0.9294
10499SOL     OW36229   7.169   7.503   4.319  0.4631  0.2029 -0.1723
10499SOL    HW136230   7.219   7.419   4.342  0.3397 -0.2036 -1.3950
10499SOL    HW236231   7.139   7.500   4.224 -1.7040  0.5397  0.4778
10500SOL     OW36232   9.022   9.571   0.149 -0.3254 -0.2521  0.0070
10500SOL    HW136233   9.069   9.493   0.191 -0.0941  0.2000  0.5937
10500SOL    HW236234   9.059   9.656   0.187  0.9927  0.2144 -2.2588
10501SOL     OW36235   7.594   1.670   0.665  0.1107  0.7538  0.0566
10501SOL    HW136236   7.575   1.728   0.744 -1.2579 -0.0979  0.3620
10501SOL    HW236237   7.512   1.619   0.640  1.1835 -0.7530 -0.4706
10502SOL     OW36238   2.736   5.992   0.147 -0.3646 -0.0778 -0.6942
10502SOL    HW136239   2.714   6.085   0.119  0.8145  0.2177 -0.6834
10502SOL    HW236240   2.687   5.927   0.088 -1.8545  0.5406 -0.1408
10503SOL     OW36241   4.001   8.261   0.446 -0.3012 -0.0480  0.1748
10503SOL    HW136242   4.042   8.173   0.472 -1.3753 -0.7968 -0.5802
10503SOL    HW236243   3.984   8.261   0.347 -0.0830  1.1141  0.1325
10505SOL     OW36244   9.124   6.713   2.129  0.5901 -0.2700 -0.7105
10505SOL    HW136245   9.049   6.755   2.077 -0.2870 -0.5154  0.3539
10505SOL    HW236246   9.182   6.784   2.168 -0.1760 -0.0504  0.0402
10506SOL     OW36247   9.418   8.831   3.857  0.0014  0.1369 -0.4552
10506SOL    HW136248   9.457   8.884   3.933  0.8003  0.5248 -1.1292
10506SOL    HW236249   9.349   8.886   3.810 -0.9463 -0.3335  0.3671
10507SOL     OW36250   2.071   8.372   3.237 -0.2963 -0.3361  0.1956
10507SOL    HW136251   2.094   8.332   3.326 -2.2223 -3.9127 -0.7998
10507SOL    HW236252   1.984   8.420   3.243 -0.8820 -1.3771  0.0280
10508SOL     OW36253   0.055   2.724   2.948 -0.3388 -0.6114  0.4196
10508SOL    HW136254   0.039   2.698   2.853  1.4409  0.6202 -0.2347
10508SOL    HW236255  -0.032   2.746   2.992 -1.0307  0.0761 -1.2823
10509SOL     OW36256   7.240   6.565   3.745 -0.3982  0.5148  0.2885
10509SOL    HW136257   7.325   6.604   3.781 -0.9141  0.0266  2.0721
10509SOL    HW236258   7.262   6.496   3.676  0.6412  0.5573  0.5735
10511SOL     OW36259   9.230   3.497   3.513  0.3296 -0.4518  0.1419
10511SOL    HW136260   9.142   3.503   3.560  0.2728  1.9708 -0.2145
10511SOL    HW236261   9.301   3.473   3.579  0.0843  1.8993  1.3140
10513SOL     OW36262   2.286   6.978   1.590  0.0075  0.2659  0.0547
10513SOL    HW136263   2.189   6.996   1.581  0.1756  1.0838 -0.1195
10513SOL    HW236264   2.329   7.052   1.641 -0.0994 -1.8567  3.4328
10514SOL     OW36265   6.698   0.370   3.319 -0.9270  0.5393  0.1479
10514SOL    HW136266   6.700   0.392   3.416  0.0049  0.9621  0.0377
10514SOL    HW236267   6.619   0.311   3.299  0.2270 -1.5435  1.5748
10515SOL     OW36268   1.139   1.731   3.259  0.0427  0.2185 -0.2281
10515SOL    HW136269   1.208   1.710   3.189 -0.7125 -0.5073 -0.7702
10515SOL    HW236270   1.177   1.795   3.325  1.1611  0.0045 -0.6511
10516SOL     OW36271   0.244   8.706   0.496  0.3283 -0.4183  0.1799
10516SOL    HW136272   0.186   8.684   0.574  0.0669 -0.2427  0.0342
10516SOL    HW236273   0.317   8.768   0.524 -0.8529  1.1120 -0.1227
10517SOL     OW36274   2.730   9.748   2.129 -0.2884 -0.6124 -0.2404
10517SOL    HW136275   2.695   9.667   2.176 -1.4548  0.8263  1.4413
10517SOL    HW236276   2.654   9.810   2.109  0.8786  1.1844  0.7222
10518SOL     OW36277   4.118   1.219   1.116  0.2491  0.0049 -0.5480
10518SOL    HW136278   4.077   1.133   1.084 -0.0162  0.3054 -1.0322
10518SOL    HW236279   4.076   1.296   1.066  0.1101  0.4523  0.2502
10519SOL     OW36280   7.000   8.860   3.715  0.2185  0.0347 -0.5507
10519SOL    HW136281   7.098   8.844   3.727 -0.0659 -0.3223  1.4766
10519SOL    HW236282   6.957   8.780   3.673  0.6159 -0.2240 -0.4589
10521SOL     OW36283   9.472   7.651   4.342  0.0227  0.0752  0.2133
10521SOL    HW136284   9.444   7.578   4.404  2.5788 -0.0534  1.2875
10521SOL    HW236285   9.551   7.621   4.289 -0.4836  1.1544 -1.1874
10522SOL     OW36286   0.066   0.073   2.267 -0.8525  0.5616 -0.0678
10522SOL    HW136287   0.130   0.143   2.299 -1.9114  1.5359 -0.0945
10522SOL    HW236288   0.029   0.100   2.179 -0.1482 -0.7422 -0.7781
10523SOL     OW36289   1.007   0.124   4.172  0.0744 -0.5631  0.0858
10523SOL    HW136290   1.082   0.058   4.168  1.7766  1.3514 -0.5868
10523SOL    HW236291   1.043   0.216   4.162 -2.4670  0.3766 -1.0907
10524SOL     OW36292   6.796   8.402   2.255 -0.5215  0.8752  0.3830
10524SOL    HW136293   6.795   8.307   2.223 -2.3056  0.8102  0.5759
10524SOL    HW236294   6.889   8.427   2.283 -0.1351 -0.9663  0.8102
10525SOL     OW36295   4.888   4.207   1.687  0.2372 -0.2718  0.1328
10525SOL    HW136296   4.861   4.211   1.590 -0.3309  1.0132  0.3341
10525SOL    HW236297   4.815   4.164   1.740 -0.4319  1.0697  0.3203
10526SOL     OW36298   0.968   9.032   1.698  0.4988  0.1335 -0.7496
10526SOL    HW136299   0.907   9.107   1.724  0.2748 -0.2274 -0.2258
10526SOL    HW236300   0.954   9.009   1.602  0.3481  0.5566 -0.8294
10528SOL     OW36301   5.122   0.090   3.649  0.1672  0.2181 -0.8088
10528SOL    HW136302   5.104   0.188   3.642  0.7608  0.2867 -1.4564
10528SOL    HW236303   5.220   0.074   3.641 -0.0349 -0.5277 -1.7819
10529SOL     OW36304   9.120   5.543   0.794  0.1014 -0.0513  0.0956
10529SOL    HW136305   9.041   5.502   0.839  1.3632 -0.3454  2.1043
10529SOL    HW236306   9.171   5.471   0.745  0.2096 -0.2134  0.4446
10530SOL     OW36307   8.124   3.072   4.002  0.4670  0.1359 -0.0597
10530SOL    HW136308   8.115   2.982   3.959  0.3421  0.1984 -0.1653
10530SOL    HW236309   8.126   3.142   3.931 -1.7351  0.4030  0.1149
10531SOL     OW36310   8.132   4.084   0.144  0.0331  0.6934  0.0931
10531SOL    HW136311   8.048   4.035   0.166  0.6110 -0.1326  0.4825
10531SOL    HW236312   8.135   4.170   0.195  0.4169 -0.2643  1.7303
10532SOL     OW36313   9.637   2.865   1.348 -0.2861  0.0276  0.0020
10532SOL    HW136314   9.629   2.833   1.254 -0.2005  0.1723 -0.0557
10532SOL    HW236315   9.619   2.963   1.352  0.5217  0.1828  0.0049
10533SOL     OW36316   1.006   0.694   0.273 -0.1986  0.1373 -0.4602
10533SOL    HW136317   0.992   0.608   0.322 -0.8908  0.1714 -0.5924
10533SOL    HW236318   1.075   0.749   0.320  0.0313 -0.3642 -0.2127
10534SOL     OW36319   7.066   3.720   0.145  0.1779 -0.4305  0.1617
10534SOL    HW136320   7.110   3.730   0.234 -0.1873  0.4644  0.2525
10534SOL    HW236321   6.967   3.720   0.157  0.0467  2.3344 -0.4582
10535SOL     OW36322   8.882   3.241   2.941 -0.3176 -0.0734 -0.2209
10535SOL    HW136323   8.863   3.222   3.037  0.9714  0.2103  0.0960
10535SOL    HW236324   8.981   3.251   2.927 -0.4949 -0.0653 -1.5630
10536SOL     OW36325   0.846   0.671   3.719 -0.6394  0.0376  0.0201
10536SOL    HW136326   0.850   0.575   3.692  0.7814  0.4052 -1.1222
10536SOL    HW236327   0.903   0.685   3.800 -2.8019 -0.5420  1.6923
10537SOL     OW36328   3.020   2.149   2.646  0.2966 -0.0049  0.1915
10537SOL    HW136329   3.009   2.084   2.721  0.2231 -0.5169 -0.2614
10537SOL    HW236330   3.030   2.099   2.560 -1.4939  0.6117 -0.3939
10538SOL     OW36331   7.243   9.834   2.520  0.0572 -0.2429  0.0346
10538SOL    HW136332   7.234   9.821   2.619  2.8997 -0.9355  0.2324
10538SOL    HW236333   7.314   9.774   2.484  0.9914  1.9683 -1.9710
10539SOL     OW36334   9.186   0.601   3.754  0.0335 -0.5873 -0.6381
10539SOL    HW136335   9.221   0.659   3.828 -1.4676 -0.7263  0.2096
10539SOL    HW236336   9.257   0.589   3.685  0.7829  1.2696 -0.2396
10540SOL     OW36337   0.197   3.735   1.477  0.5425  0.4587  0.1618
10540SOL    HW136338   0.295   3.733   1.461  0.4712  1.2703 -0.3867
10540SOL    HW236339   0.156   3.650   1.444  0.9498  0.4423 -0.3020
10541SOL     OW36340   3.713   0.079   1.496  0.2913 -0.1449 -0.1053
10541SOL    HW136341   3.688   0.107   1.588  1.1493 -1.5827  0.5772
10541SOL    HW236342   3.667  -0.007   1.473  1.6498 -0.8555 -0.2402
10542SOL     OW36343   5.373   6.892   2.514  0.4842 -0.2129 -0.4477
10542SOL    HW136344   5.471   6.887   2.494  0.6602 -0.0715  0.3792
10542SOL    HW236345   5.347   6.986   2.533  0.7658 -0.6542  2.2215
10543SOL     OW36346   9.668   0.069   0.351  0.4178  0.2592  0.5091
10543SOL    HW136347   9.606   0.119   0.291  0.8398 -0.0633 -0.2130
10543SOL    HW236348   9.762   0.088   0.324  0.5650 -1.9881 -0.7003
10544SOL     OW36349   2.366   9.697   1.606  0.5874  0.9229 -0.7155
10544SOL    HW136350   2.388   9.601   1.621 -0.6294  0.7468  0.0750
10544SOL    HW236351   2.319   9.707   1.518 -0.1297  0.6481 -0.3672
10545SOL     OW36352   9.205   0.428   0.293  0.1150 -0.2533 -0.1441
10545SOL    HW136353   9.240   0.338   0.320  0.6072 -0.2744 -0.8215
10545SOL    HW236354   9.148   0.465   0.366  3.0909  0.6160  1.8518
10546SOL     OW36355   0.694   5.134   0.075  0.0572 -0.1607 -0.5929
10546SOL    HW136356   0.783   5.168   0.047 -0.0103  2.5900  2.2631
10546SOL    HW236357   0.622   5.187   0.028 -0.0512  0.3145  0.1010
10547SOL     OW36358   1.468   0.717   0.093 -0.4993  0.1381  0.3198
10547SOL    HW136359   1.432   0.681   0.179 -1.0769  1.0422  0.4662
10547SOL    HW236360   1.550   0.771   0.111  1.6638 -2.8794 -0.1403
10548SOL     OW36361   7.491   9.088   3.664 -0.2347 -0.6243 -0.4684
10548SOL    HW136362   7.499   9.187   3.650 -1.1079 -0.3777  0.6921
10548SOL    HW236363   7.574   9.043   3.630  0.0678  0.4726 -1.2313
10549SOL     OW36364   6.491   9.296   0.898 -0.4447  0.1886 -0.3043
10549SOL    HW136365   6.495   9.392   0.925  4.0040  0.3027 -1.0717
10549SOL    HW236366   6.475   9.289   0.799  0.8347  0.1799 -0.5113
10550SOL     OW36367   3.637   1.774   4.391 -0.3999  0.0264  0.5195
10550SOL    HW136368   3.651   1.864   4.433  1.8337 -0.7211  1.4571
10550SOL    HW236369   3.701   1.763   4.315 -0.2903 -0.9639  0.7526
10552SOL     OW36370   4.127   2.385   3.409  0.0436  0.0703  0.5334
10552SOL    HW136371   4.059   2.384   3.336 -0.5367 -0.8580  1.0822
10552SOL    HW236372   4.168   2.476   3.414 -1.3870  0.7380  0.4147
10553SOL     OW36373   0.680   8.262   1.629  0.0194  0.0035 -0.3358
10553SOL    HW136374   0.658   8.225   1.720 -0.1007  0.0017 -0.3660
10553SOL    HW236375   0.777   8.248   1.611 -0.1477 -0.8617 -0.6103
10554SOL     OW36376   0.486   7.260   4.161  0.2138  0.0466 -0.2253
10554SOL    HW136377   0.488   7.314   4.077 -0.1059 -1.2484 -1.0856
10554SOL    HW236378   0.578   7.253   4.199  0.1958  1.5293  0.1235
10555SOL     OW36379   2.523   3.343   0.171 -0.1497  0.2108  1.1152
10555SOL    HW136380   2.489   3.437   0.164  0.7733  0.5395  1.0678
10555SOL    HW236381   2.612   3.336   0.128 -0.8786 -1.0456 -0.2382
10557SOL     OW36382   9.574   8.754   0.043 -0.8475  0.1836 -0.1684
10557SOL    HW136383   9.577   8.700   0.127  0.8407  0.3694 -0.0871
10557SOL    HW236384   9.551   8.849   0.066  0.3380  0.3939  0.1825
10558SOL     OW36385   1.822   0.926   3.732 -0.2463 -0.0143  0.3974
10558SOL    HW136386   1.878   0.850   3.766 -0.7191 -0.9626 -0.9428
10558SOL    HW236387   1.836   0.936   3.634 -0.4425  1.4354  0.5114
10559SOL     OW36388   3.123   2.999   3.297  0.6372  0.3276  0.0519
10559SOL    HW136389   3.190   2.937   3.339  0.0568  1.1942  2.3392
10559SOL    HW236390   3.036   2.950   3.284  0.1930  0.6294  1.8096
10560SOL     OW36391   9.159   8.642   1.745  0.0175 -0.9966 -0.9090
10560SOL    HW136392   9.153   8.587   1.829  1.6566  0.5179  0.2331
10560SOL    HW236393   9.072   8.689   1.731  0.0201 -0.5598  0.4527
10561SOL     OW36394   9.834   3.738   1.400 -0.0172 -0.6458 -0.0056
10561SOL    HW136395   9.776   3.768   1.324 -1.3861 -1.9241  0.5053
10561SOL    HW236396   9.908   3.680   1.364  0.7741  0.7411 -0.6266
10562SOL     OW36397   1.402   1.678   0.795  0.0432 -0.3254  0.6556
10562SOL    HW136398   1.407   1.767   0.841 -1.9239  0.1688 -0.0518
10562SOL    HW236399   1.378   1.692   0.699  1.4368 -1.5294  0.1052
10564SOL     OW36400   4.505   2.822   2.422 -0.3162 -0.5083 -0.9189
10564SOL    HW136401   4.464   2.748   2.369 -0.7345 -1.6222  0.9027
10564SOL    HW236402   4.605   2.815   2.418 -0.3488 -0.7557 -1.2983
10566SOL     OW36403   7.535   9.893   0.681 -0.3891  0.1830  0.3000
10566SOL    HW136404   7.465   9.822   0.677 -0.5331  0.2395  1.5471
10566SOL    HW236405   7.498   9.979   0.646  0.6612 -0.9855 -4.0088
10568SOL     OW36406   5.516   3.047   0.497  0.3784 -0.4764  0.6075
10568SOL    HW136407   5.517   3.143   0.470  2.0768 -0.0355  2.1518
10568SOL    HW236408   5.458   2.995   0.434  0.9088  1.2291 -1.3361
10569SOL     OW36409   9.416   0.136   0.785 -0.0816  0.2622 -0.2078
10569SOL    HW136410   9.467   0.106   0.704 -0.1104 -1.5893  0.4342
10569SOL    HW236411   9.323   0.102   0.780  0.5800 -1.9567  1.7347
10572SOL     OW36412   7.694   1.455   3.475 -0.0943  0.0923 -0.0401
10572SOL    HW136413   7.639   1.475   3.394 -1.2872  0.1188  0.7504
10572SOL    HW236414   7.711   1.540   3.526  0.6592  0.0792 -0.2728
10573SOL     OW36415   2.202   2.355   0.203  0.0630  0.5090  0.0572
10573SOL    HW136416   2.254   2.280   0.244 -0.7358  0.6057  1.3009
10573SOL    HW236417   2.188   2.427   0.271 -2.4216  0.1050  0.0315
10574SOL     OW36418   9.318   5.458   4.338  0.0145 -0.0101 -0.0609
10574SOL    HW136419   9.246   5.526   4.340  0.1848  0.1484  0.7671
10574SOL    HW236420   9.335   5.430   4.243  0.3425  1.5166 -0.4612
10575SOL     OW36421   9.093   5.264   3.903  0.0860 -0.4515  0.2634
10575SOL    HW136422   9.052   5.329   3.967 -0.5061  0.9739 -1.5095
10575SOL    HW236423   9.139   5.191   3.953 -0.5239  0.5367  2.2882
10577SOL     OW36424   7.019   6.820   2.230  0.1503 -0.7185  0.4827
10577SOL    HW136425   7.058   6.893   2.174  0.8922 -0.0342  1.8646
10577SOL    HW236426   7.067   6.734   2.211  1.1336 -0.2552  0.8912
10578SOL     OW36427   3.197   0.159   1.862 -0.1381  0.1679 -0.3615
10578SOL    HW136428   3.181   0.143   1.960  1.0502 -0.5617 -0.2817
10578SOL    HW236429   3.155   0.085   1.809  1.1127 -0.6250 -0.2684
10579SOL     OW36430   2.462   7.164   3.158 -0.0674 -0.5950 -0.1973
10579SOL    HW136431   2.391   7.093   3.158  0.3172 -1.0021  1.1473
10579SOL    HW236432   2.546   7.127   3.118  0.7076 -1.5449  2.1638
10580SOL     OW36433   9.598   6.002   2.221  0.8145  0.0082 -0.1479
10580SOL    HW136434   9.675   5.970   2.165  0.2293 -1.3823 -0.1773
10580SOL    HW236435   9.618   5.986   2.317  0.2892 -0.9595 -0.1977
10582SOL     OW36436   2.345   4.051   2.964 -0.0176 -0.5570 -0.2805
10582SOL    HW136437   2.302   4.080   2.879 -3.2053 -2.3252  0.6171
10582SOL    HW236438   2.436   4.015   2.945  0.0999  0.8916 -2.6418
10583SOL     OW36439   2.506   1.448   2.192 -0.0581  0.0797  0.6511
10583SOL    HW136440   2.420   1.417   2.232 -0.2677  1.4177  1.2860
10583SOL    HW236441   2.489   1.488   2.102 -0.3977  2.0805  1.5805
10584SOL     OW36442   3.417   1.195   1.678 -0.1304 -0.2927  0.2609
10584SOL    HW136443   3.356   1.204   1.599  0.3736 -1.8582 -0.3225
10584SOL    HW236444   3.392   1.114   1.731  0.5524 -0.1521  0.8083
10585SOL     OW36445   2.590   8.333   4.432  0.1117 -0.8338 -0.7967
10585SOL    HW136446   2.690   8.338   4.433  0.0854 -0.2244  1.6411
10585SOL    HW236447   2.558   8.272   4.504 -1.3478  1.4420  0.5777
10586SOL     OW36448   7.938   9.798   3.555 -0.1909  0.7060  0.2377
10586SOL    HW136449   7.935   9.885   3.506 -0.1136  0.8502  0.4912
10586SOL    HW236450   8.022   9.749   3.529  0.1563  1.0548  0.6909
10587SOL     OW36451   0.378   4.281   0.551 -0.7513 -0.4202  0.4048
10587SOL    HW136452   0.408   4.371   0.582 -1.8045  0.1746 -0.2508
10587SOL    HW236453   0.449   4.213   0.570  0.7164  0.8269 -0.5629
10588SOL     OW36454   2.651   1.647   3.383 -0.4809  0.0744 -0.7928
10588SOL    HW136455   2.619   1.562   3.341 -0.1128 -0.7479  0.5534
10588SOL    HW236456   2.619   1.725   3.330 -1.0987 -0.8987 -1.8610
10589SOL     OW36457   7.005   0.462   3.970  0.7739 -0.2652 -0.1244
10589SOL    HW136458   7.057   0.505   4.044 -0.6263  1.7416 -0.2839
10589SOL    HW236459   6.971   0.373   4.000  1.7492 -0.2590  1.0164
10590SOL     OW36460   0.945   2.271   4.429 -0.6120  0.4271  0.4166
10590SOL    HW136461   0.899   2.239   4.511 -1.2226 -0.8532 -0.4165
10590SOL    HW236462   1.018   2.335   4.455  0.5418 -1.4876  2.0994
10591SOL     OW36463   0.999   9.093   1.007 -0.1880  0.3671  0.1240
10591SOL    HW136464   0.907   9.095   1.046 -0.3237 -1.6740 -0.0632
10591SOL    HW236465   1.066   9.086   1.081 -0.1949  1.2258  0.2226
10592SOL     OW36466   0.836   4.865   1.087  0.3830 -0.0146  0.4018
10592SOL    HW136467   0.936   4.858   1.090  0.3885 -0.2441 -0.2921
10592SOL    HW236468   0.799   4.849   1.179  1.0129  0.5417  0.7567
10593SOL     OW36469   3.498   8.710   1.262 -0.1979 -0.4579  0.1907
10593SOL    HW136470   3.426   8.672   1.319 -0.8569  0.6639  0.1204
10593SOL    HW236471   3.460   8.781   1.202  0.9392  0.0908  0.0931
10594SOL     OW36472   9.719   8.423   1.694  0.1755  0.0896 -0.2308
10594SOL    HW136473   9.799   8.484   1.696  1.0107 -0.9457 -1.8887
10594SOL    HW236474   9.654   8.453   1.764  1.4481  1.6984  0.3067
10595SOL     OW36475   9.052   2.226   0.957 -0.6267  0.2341 -0.8053
10595SOL    HW136476   8.999   2.142   0.948 -0.0346 -0.2273 -0.0563
10595SOL    HW236477   9.119   2.232   0.883  0.2872 -0.6577 -0.0605
10596SOL     OW36478   1.255   7.560   0.380  0.7898 -0.3882  0.2615
10596SOL    HW136479   1.297   7.649   0.399 -0.7034  0.1764  1.0040
10596SOL    HW236480   1.165   7.556   0.423  0.3423 -1.8125 -0.7689
10597SOL     OW36481   9.173   9.022   4.379 -0.3388 -0.3534  0.4722
10597SOL    HW136482   9.108   9.008   4.454 -0.2452 -0.0649  0.6098
10597SOL    HW236483   9.135   9.089   4.315  1.0819  2.1193  2.1000
10598SOL     OW36484   0.639   7.971   4.366  0.4427  0.2155  0.2196
10598SOL    HW136485   0.651   8.042   4.297  3.0136  1.5461  1.9328
10598SOL    HW236486   0.709   7.900   4.355  0.1680 -0.1463  0.7538
10599SOL     OW36487   0.393   8.783   1.417  0.0532 -0.2523 -0.6754
10599SOL    HW136488   0.416   8.863   1.361 -0.9632 -0.2362 -1.0807
10599SOL    HW236489   0.295   8.767   1.414 -0.0072 -0.3399  0.9993
10601SOL     OW36490   9.689   3.270   3.919  0.3272  0.1398 -0.1150
10601SOL    HW136491   9.615   3.337   3.916  0.7730  0.6006 -1.1377
10601SOL    HW236492   9.717   3.254   4.014 -3.0399 -2.2152  0.5460
10602SOL     OW36493   2.099   3.533   2.114  0.8375 -0.4907  0.2243
10602SOL    HW136494   2.038   3.592   2.166 -1.5139 -1.5524 -1.2311
10602SOL    HW236495   2.068   3.527   2.020  3.0837 -1.2643 -0.5171
10603SOL     OW36496   2.231   3.301   0.264 -0.3128  0.1636 -0.9678
10603SOL    HW136497   2.246   3.391   0.224  1.9301  0.8099  1.2189
10603SOL    HW236498   2.283   3.292   0.348 -1.8507 -2.5819 -0.2220
10604SOL     OW36499   1.708   0.350   3.009 -0.2563  0.1432 -0.0403
10604SOL    HW136500   1.746   0.414   3.076  0.5324 -0.5618  0.1954
10604SOL    HW236501   1.737   0.257   3.031  0.9305  0.0139 -1.9486
10605SOL     OW36502   3.243   0.662   1.170  0.2568  0.7852  0.2870
10605SOL    HW136503   3.317   0.724   1.193  0.0767  1.1657 -0.1487
10605SOL    HW236504   3.270   0.568   1.191  0.3086  1.0620  1.5044
10606SOL     OW36505   9.817   3.176   3.384 -0.4475  0.0530  0.5405
10606SOL    HW136506   9.870   3.124   3.450 -1.1381 -1.6871 -0.2468
10606SOL    HW236507   9.749   3.232   3.432 -0.8143 -1.0490  1.3425
10607SOL     OW36508   7.408   2.242   2.705 -0.2186 -0.2510  0.3073
10607SOL    HW136509   7.369   2.313   2.646 -0.7448 -0.9510 -0.1963
10607SOL    HW236510   7.422   2.279   2.797  1.1732  1.0327 -0.3978
10610SOL     OW36511   4.861   6.259   2.303  0.7487  0.3494 -0.0095
10610SOL    HW136512   4.925   6.308   2.363 -0.0704  0.3757  0.8577
10610SOL    HW236513   4.783   6.227   2.356 -0.1205  0.5937 -1.1130
10611SOL     OW36514   9.206   5.361   0.160  0.5940  0.0272 -0.4158
10611SOL    HW136515   9.181   5.432   0.225  0.4876 -0.2187 -0.1858
10611SOL    HW236516   9.202   5.272   0.206  2.6763  0.0551 -0.1385
10612SOL     OW36517   9.326   6.498   3.150  0.3102  0.2650  0.1634
10612SOL    HW136518   9.255   6.551   3.196  0.0732  2.9601 -3.1718
10612SOL    HW236519   9.285   6.424   3.097  0.0480  1.1226 -0.8442
10613SOL     OW36520   5.367   7.304   3.406 -0.5919 -0.0768  0.0942
10613SOL    HW136521   5.270   7.287   3.422 -0.7240  0.2581 -0.3261
10613SOL    HW236522   5.380   7.335   3.312 -0.2120  0.9173  0.4585
10614SOL     OW36523   0.944   7.627   3.682  0.0124 -0.1559  0.8697
10614SOL    HW136524   0.861   7.572   3.684  0.4056 -0.7509  0.7944
10614SOL    HW236525   0.985   7.622   3.591 -0.8277  1.5771  0.3622
10615SOL     OW36526   7.714   4.856   0.130 -0.4448  0.3100 -0.7854
10615SOL    HW136527   7.785   4.884   0.195 -0.5419  0.6145 -0.8097
10615SOL    HW236528   7.756   4.836   0.042 -0.6431  2.6924 -1.4564
10616SOL     OW36529   1.384   0.073   3.000  0.0390 -0.0052 -0.5167
10616SOL    HW136530   1.439   0.052   2.919  0.0319 -1.1807 -0.2318
10616SOL    HW236531   1.287   0.064   2.978  0.0163  0.3155 -0.5484
10617SOL     OW36532   8.988   6.016   0.200 -0.3023 -0.3382 -0.0828
10617SOL    HW136533   9.001   6.107   0.238  0.4071 -0.1367 -0.7971
10617SOL    HW236534   9.063   5.957   0.230 -0.7349 -0.6800  0.3397
10618SOL     OW36535   0.009   4.303   0.545  0.0505  0.3560  0.7299
10618SOL    HW136536   0.046   4.381   0.495  0.6948  0.8003  1.8865
10618SOL    HW236537   0.084   4.251   0.585 -0.5352  0.9170  2.5882
10619SOL     OW36538   9.848   4.590   2.808  0.2103  0.5309  0.1606
10619SOL    HW136539   9.913   4.665   2.817  0.8334  0.2115 -1.4007
10619SOL    HW236540   9.834   4.570   2.711  0.0230 -1.3287  0.5439
10622SOL     OW36541   8.964   0.169   3.919 -0.0190  0.8685 -0.2256
10622SOL    HW136542   9.012   0.127   3.996  0.2772  1.1213 -0.2750
10622SOL    HW236543   8.866   0.169   3.938  0.1987  2.5252  0.9410
10623SOL     OW36544   2.329   0.493   4.078 -0.5090 -0.5989 -0.0521
10623SOL    HW136545   2.321   0.521   3.983 -0.0781 -2.2194 -0.5906
10623SOL    HW236546   2.306   0.396   4.086 -0.6385 -0.4590  1.5191
10625SOL     OW36547   4.674   8.673   3.956 -0.3167 -0.2283  0.2404
10625SOL    HW136548   4.689   8.699   4.051  0.9617 -0.3094  0.0788
10625SOL    HW236549   4.706   8.746   3.896 -0.6259 -0.3986 -0.1358
10626SOL     OW36550   9.255   2.867   1.147 -0.1390 -0.8073  0.3553
10626SOL    HW136551   9.280   2.770   1.142  1.0439 -0.5618  1.1964
10626SOL    HW236552   9.332   2.922   1.113 -1.0668 -0.1847 -0.7651
10627SOL     OW36553   4.287   7.323   3.252 -0.1348 -0.0616  0.6856
10627SOL    HW136554   4.307   7.229   3.225  0.6743 -0.0684  1.3023
10627SOL    HW236555   4.193   7.346   3.227 -0.8069 -1.5140  1.8162
10629SOL     OW36556   0.762   7.197   4.177 -0.0659  0.0409  0.2381
10629SOL    HW136557   0.806   7.257   4.111  0.9141 -0.6050  0.2833
10629SOL    HW236558   0.773   7.235   4.269 -0.4521  0.3791  0.1422
10630SOL     OW36559   0.238   4.826   2.059  0.0444  0.3064 -0.0879
10630SOL    HW136560   0.229   4.877   2.144 -0.3486  0.3448 -0.1524
10630SOL    HW236561   0.221   4.887   1.982  0.4757  0.2909 -0.2000
10631SOL     OW36562   4.315   7.799   3.079 -0.2780 -0.2614 -0.5413
10631SOL    HW136563   4.384   7.771   3.146  0.5825  0.4861 -1.0986
10631SOL    HW236564   4.280   7.890   3.103 -0.6747 -0.4035 -0.5709
10634SOL     OW36565   8.560   2.956   2.458  0.1023  0.2517 -0.2627
10634SOL    HW136566   8.590   2.887   2.392 -1.4627 -0.2365 -0.4954
10634SOL    HW236567   8.492   3.015   2.415  0.2791  0.9592  0.4205
10635SOL     OW36568   4.377   1.756   2.050 -0.2927 -0.5553 -0.4080
10635SOL    HW136569   4.450   1.701   2.009  0.3466  0.2375 -0.3328
10635SOL    HW236570   4.319   1.793   1.977  0.9827  1.0480 -0.6464
10636SOL     OW36571   3.647   9.807   2.879 -0.1674 -0.2994 -0.4264
10636SOL    HW136572   3.693   9.723   2.852  0.4479  0.1105 -0.6828
10636SOL    HW236573   3.707   9.885   2.861 -1.1767  0.3008 -1.3030
10638SOL     OW36574   8.757   6.577   3.420  0.2381  0.5178 -0.1877
10638SOL    HW136575   8.793   6.631   3.496  0.8878 -0.3225  0.1144
10638SOL    HW236576   8.723   6.490   3.455 -0.4258  0.5597 -0.7229
10639SOL     OW36577   8.133   7.343   0.484  0.6414 -0.8177  0.2273
10639SOL    HW136578   8.088   7.399   0.414  0.7524 -0.2898  0.5761
10639SOL    HW236579   8.193   7.401   0.539  1.3841 -1.4348  0.0653
10641SOL     OW36580   4.416   8.734   1.882 -0.1063  0.1248  0.5523
10641SOL    HW136581   4.470   8.651   1.896  0.0692 -0.1222 -1.4804
10641SOL    HW236582   4.358   8.723   1.801  0.2636  2.1531 -0.0141
10642SOL     OW36583   9.203   0.308   4.366 -0.5931 -0.3910 -0.0718
10642SOL    HW136584   9.159   0.323   4.455 -1.1084  0.1246 -0.4079
10642SOL    HW236585   9.138   0.329   4.293  0.6110  1.7213 -0.5970
10643SOL     OW36586   0.755   1.040   1.888  0.0316 -0.3172  0.4284
10643SOL    HW136587   0.750   1.122   1.945 -0.3322 -0.0361 -0.0079
10643SOL    HW236588   0.775   0.960   1.946  1.2666  0.2034  0.7374
10644SOL     OW36589   9.850   3.211   0.788 -0.2688 -0.0509 -0.0987
10644SOL    HW136590   9.884   3.266   0.713 -1.8578  0.2088 -0.6588
10644SOL    HW236591   9.754   3.186   0.770  0.3603 -2.8609  0.2045
10645SOL     OW36592   8.138   4.567   4.159  0.3540  0.0939  0.3768
10645SOL    HW136593   8.125   4.644   4.221 -0.4368 -0.0418  0.3885
10645SOL    HW236594   8.226   4.522   4.178  1.2866  1.6103 -0.3133
10646SOL     OW36595   1.115   4.836   1.133  0.4970 -0.2905 -0.1331
10646SOL    HW136596   1.201   4.791   1.110  0.4368 -0.3484 -0.2439
10646SOL    HW236597   1.132   4.932   1.155  0.4726 -0.0905 -0.9866
10647SOL     OW36598   8.394   1.656   1.303 -0.3507  0.1148  0.9350
10647SOL    HW136599   8.492   1.654   1.283 -0.5470  1.5237 -0.2753
10647SOL    HW236600   8.374   1.594   1.379  1.6645  0.7467  2.0292
10648SOL     OW36601   6.357   7.654   3.778 -0.0960 -0.4279  0.0070
10648SOL    HW136602   6.295   7.724   3.742  0.5258  0.6592  1.0293
10648SOL    HW236603   6.319   7.616   3.862  0.5750  0.1719  0.5831
10649SOL     OW36604   9.091   5.968   0.686 -0.5605 -0.8511 -0.7128
10649SOL    HW136605   9.115   5.875   0.658  0.3985 -0.6104 -0.7079
10649SOL    HW236606   9.165   6.006   0.741 -1.5430 -0.5733  0.4148
10650SOL     OW36607   5.703   8.918   1.545 -0.4532  0.3325 -0.2569
10650SOL    HW136608   5.636   8.966   1.489 -0.9030  0.2623  0.2174
10650SOL    HW236609   5.708   8.961   1.635  0.3606  0.5296 -0.3909
10651SOL     OW36610   6.217   9.865   3.542 -0.1934 -0.0714  0.1728
10651SOL    HW136611   6.218   9.801   3.465 -1.2205 -1.7377  1.5087
10651SOL    HW236612   6.308   9.905   3.553  0.3548 -0.9963 -0.9168
10652SOL     OW36613   5.419   9.530   3.095  0.3582  0.0492 -0.9789
10652SOL    HW136614   5.383   9.564   3.008 -0.3395  0.4009 -0.5562
10652SOL    HW236615   5.344   9.497   3.152  0.8099 -0.1592 -0.4936
10653SOL     OW36616   5.186   9.533   3.378  0.3653 -0.1267 -0.3239
10653SOL    HW136617   5.167   9.459   3.313  0.7374 -2.0639  1.7084
10653SOL    HW236618   5.102   9.557   3.426  0.2667  0.7144 -0.9151
10654SOL     OW36619   1.397   9.740   0.544  0.2665 -0.3266  0.1935
10654SOL    HW136620   1.456   9.687   0.483  0.5351 -1.0015  1.0267
10654SOL    HW236621   1.438   9.742   0.636 -0.8540 -0.5491  0.7035
10655SOL     OW36622   4.584   4.721   0.676  0.0500  0.2957 -0.4020
10655SOL    HW136623   4.665   4.745   0.730  0.3268  1.1712 -1.1931
10655SOL    HW236624   4.529   4.804   0.661 -0.0934  0.0245 -1.3625
10656SOL     OW36625   1.850   6.816   3.696  0.3158 -0.4228  0.0717
10656SOL    HW136626   1.890   6.845   3.609 -0.2800  1.9002  0.5287
10656SOL    HW236627   1.799   6.731   3.683  1.4763 -0.8937 -1.5098
10658SOL     OW36628   1.951   1.442   3.522  0.1946  0.0314  0.3763
10658SOL    HW136629   1.984   1.380   3.592  0.4663  0.6211  0.7740
10658SOL    HW236630   1.919   1.527   3.564  0.8452  0.5973 -0.2495
10660SOL     OW36631   8.421   8.719   2.974 -0.9056  0.4603 -0.0975
10660SOL    HW136632   8.383   8.661   3.046 -0.9468 -0.7978 -1.1109
10660SOL    HW236633   8.350   8.780   2.939 -0.9549  0.8848  0.7382
10661SOL     OW36634   3.202   0.351   2.582 -0.1486 -0.1690  0.2700
10661SOL    HW136635   3.154   0.329   2.497  0.4864 -0.0591 -0.1272
10661SOL    HW236636   3.137   0.357   2.657 -0.8023  0.4298 -0.3436
10662SOL     OW36637   7.330   1.927   2.071  0.0676  0.2765 -0.0977
10662SOL    HW136638   7.344   1.939   2.169 -0.2173  2.8938 -0.3355
10662SOL    HW236639   7.400   1.866   2.034  1.0037  0.3686  1.4900
10663SOL     OW36640   1.791   7.221   3.492  0.0170 -0.0144  0.2566
10663SOL    HW136641   1.740   7.269   3.420  1.1932  1.8348  0.6284
10663SOL    HW236642   1.727   7.182   3.558 -0.9343  1.7769  0.4029
10664SOL     OW36643   0.072   5.124   3.425 -0.1846  0.2379 -0.1919
10664SOL    HW136644  -0.011   5.070   3.432  0.3768 -0.5225  0.7506
10664SOL    HW236645   0.050   5.221   3.437 -1.1124  0.1725 -1.3193
10665SOL     OW36646   7.891   4.195   0.890 -0.4600  0.2141  0.6197
10665SOL    HW136647   7.826   4.190   0.814  0.2436  0.7529 -0.0336
10665SOL    HW236648   7.936   4.284   0.888  2.1761 -1.0988 -0.5159
10666SOL     OW36649   9.187   3.962   0.038 -0.3343  0.2786  0.4786
10666SOL    HW136650   9.109   3.962  -0.024 -1.1208  1.7309  1.4482
10666SOL    HW236651   9.172   3.898   0.113 -0.6754  0.6825  0.7565
10667SOL     OW36652   2.855   8.371   1.919  0.1665  0.8651  0.3104
10667SOL    HW136653   2.782   8.419   1.871 -0.7592  1.1766  2.0067
10667SOL    HW236654   2.830   8.275   1.932  1.6790  0.0587 -2.3826
10668SOL     OW36655   7.250   1.396   0.810  0.2960  0.2405  0.4621
10668SOL    HW136656   7.163   1.383   0.762 -0.1386  0.8648  1.0845
10668SOL    HW236657   7.241   1.470   0.876  1.9848  1.9850 -1.1774
10669SOL     OW36658   7.761   2.268   2.676  0.0459 -0.0550  0.2496
10669SOL    HW136659   7.664   2.248   2.684 -0.0562  0.6657  0.9694
10669SOL    HW236660   7.775   2.367   2.674  0.8002 -0.1393  0.8105
10670SOL     OW36661   9.063   3.127   2.496 -0.0546 -0.2202 -0.0839
10670SOL    HW136662   9.132   3.166   2.434 -0.0344  0.7072  0.5190
10670SOL    HW236663   9.095   3.135   2.590 -1.5423  1.3406  0.2994
10671SOL     OW36664   0.566   5.331   0.683  0.2862 -0.0607 -0.3656
10671SOL    HW136665   0.643   5.356   0.743  1.0978 -2.0333 -0.5365
10671SOL    HW236666   0.597   5.331   0.588 -0.3967  0.8493 -0.5887
10672SOL     OW36667   3.989   2.891   2.790  0.1086  0.2747 -0.0407
10672SOL    HW136668   4.050   2.956   2.744  0.5722  0.5455  0.9362
10672SOL    HW236669   3.962   2.819   2.726  1.9549 -0.2001 -0.3192
10673SOL     OW36670   8.397   5.940   0.777 -0.3215 -0.3653  0.0306
10673SOL    HW136671   8.425   6.036   0.775  0.2530 -0.5138  0.9016
10673SOL    HW236672   8.344   5.919   0.694  0.0443  0.5502 -0.4404
10674SOL     OW36673   0.413   1.531   0.549  0.6787  0.1544  0.6292
10674SOL    HW136674   0.388   1.615   0.502 -0.3022  0.4218  1.6171
10674SOL    HW236675   0.349   1.458   0.525 -1.4210  0.9651  3.5349
10675SOL     OW36676   0.896   3.405   0.325  0.0795 -0.4213  0.0405
10675SOL    HW136677   0.837   3.457   0.387  1.3304 -0.4819  1.3048
10675SOL    HW236678   0.887   3.440   0.232  1.4232  2.4832  0.9809
10676SOL     OW36679   0.667   8.391   1.231  0.1224 -0.0452 -0.0015
10676SOL    HW136680   0.671   8.470   1.292 -0.4566  0.1824 -0.2573
10676SOL    HW236681   0.637   8.421   1.140  0.6702 -0.4314 -0.3136
10677SOL     OW36682   8.585   1.822   3.831  0.8489  0.5421 -0.4029
10677SOL    HW136683   8.544   1.754   3.770 -0.4001 -0.2159  1.2407
10677SOL    HW236684   8.513   1.880   3.868  1.6362  1.1966  0.1072
10678SOL     OW36685   8.678   2.892   0.235  0.3973 -0.0972  1.0833
10678SOL    HW136686   8.659   2.811   0.180  0.6713 -0.2147  1.1582
10678SOL    HW236687   8.776   2.912   0.233  0.1944  0.8641  0.1945
10680SOL     OW36688   3.744   9.809   0.420  0.0349  0.2905  0.2584
10680SOL    HW136689   3.803   9.879   0.378 -0.9062 -0.2219 -2.0082
10680SOL    HW236690   3.794   9.722   0.424  0.1252  0.3374  0.1525
10681SOL     OW36691   4.724   1.910   3.847  0.0240  0.0832  0.3157
10681SOL    HW136692   4.680   1.905   3.936 -0.5957  0.0267  0.0116
10681SOL    HW236693   4.662   1.953   3.781 -0.2270 -1.4654 -0.5031
10683SOL     OW36694   3.948   4.190   4.030  0.2658 -0.2059  0.6895
10683SOL    HW136695   3.976   4.096   4.047  0.6836 -0.3052 -0.4681
10683SOL    HW236696   4.028   4.250   4.033  0.2461 -0.1295 -0.1939
10684SOL     OW36697   3.555   5.348   1.540 -0.7534  0.6874  0.6539
10684SOL    HW136698   3.612   5.268   1.520 -1.6620 -0.7772  3.7282
10684SOL    HW236699   3.599   5.430   1.502  0.6822 -1.0919 -1.6860
10685SOL     OW36700   2.953   6.414   0.513  0.1307  0.6735  0.1388
10685SOL    HW136701   2.863   6.455   0.506 -0.9547 -1.0393  3.2325
10685SOL    HW236702   2.950   6.320   0.480  1.0860  0.9988 -0.9089
10688SOL     OW36703   1.841   1.954   0.121 -0.0086 -0.4915 -0.2072
10688SOL    HW136704   1.926   1.985   0.080 -0.2471 -1.0703 -1.1723
10688SOL    HW236705   1.850   1.951   0.220  1.9247 -2.9542 -0.4180
10690SOL     OW36706   3.330   1.210   0.314 -0.5461 -0.4280 -0.1338
10690SOL    HW136707   3.413   1.255   0.349 -0.1744 -0.7603 -0.5891
10690SOL    HW236708   3.252   1.237   0.371 -0.8844  3.2025 -2.1802
10691SOL     OW36709   0.851   6.125   0.906 -0.5977  0.1806  0.0952
10691SOL    HW136710   0.923   6.167   0.851 -0.3817  0.9490  0.9593
10691SOL    HW236711   0.890   6.054   0.964 -0.6645  0.0559 -0.0117
10692SOL     OW36712   9.219   1.200   1.416 -0.0544 -0.2506 -0.1798
10692SOL    HW136713   9.147   1.262   1.385  1.2874  2.6006  2.1792
10692SOL    HW236714   9.305   1.223   1.370  0.1234 -1.3821 -0.4223
10693SOL     OW36715   3.397   0.745   0.073  0.7420 -0.1868 -0.6463
10693SOL    HW136716   3.367   0.749   0.169  0.6505 -4.3914 -0.3633
10693SOL    HW236717   3.334   0.686   0.022  2.4139 -0.3145 -2.5882
10694SOL     OW36718   9.342   2.903   2.775  0.5480 -0.3797  0.1131
10694SOL    HW136719   9.440   2.894   2.760  1.0447  0.9918  2.3586
10694SOL    HW236720   9.316   2.999   2.770 -0.4795 -0.6242  0.6141
10695SOL     OW36721   3.271   4.685   1.120  0.3358 -0.0140  0.0044
10695SOL    HW136722   3.314   4.719   1.203 -1.1821  0.6671  0.5107
10695SOL    HW236723   3.340   4.636   1.065  1.6324  0.6174  1.0390
10696SOL     OW36724   4.104   7.246   2.929  0.1688  0.0293 -0.0058
10696SOL    HW136725   4.087   7.318   2.997  0.4386  1.6653 -1.6343
10696SOL    HW236726   4.183   7.271   2.873  0.8204 -1.9780 -0.0210
10700SOL     OW36727   4.520   7.337   1.303 -0.7895  0.1097 -0.2172
10700SOL    HW136728   4.442   7.316   1.362 -0.3994 -0.4467  0.1056
10700SOL    HW236729   4.535   7.261   1.239  0.4868 -0.5326  0.8044
10701SOL     OW36730   1.122   5.032   3.657  0.0367  1.1599  0.3535
10701SOL    HW136731   1.070   5.114   3.633 -1.7392  0.0312  0.3044
10701SOL    HW236732   1.060   4.960   3.687  1.4460 -0.6848 -1.0402
10702SOL     OW36733   3.203   3.690   0.872  0.0299  0.3328  0.0547
10702SOL    HW136734   3.190   3.785   0.898  0.4183  1.3534 -3.1908
10702SOL    HW236735   3.131   3.663   0.808 -0.0187 -1.5448  0.8614
10703SOL     OW36736   4.096   2.696   2.006  0.1682  0.1068  0.2522
10703SOL    HW136737   4.155   2.776   1.995 -0.0782 -0.0260 -2.5477
10703SOL    HW236738   4.033   2.711   2.082  1.0176  2.0341  0.6003
10704SOL     OW36739   3.915   2.732   1.072  0.0887  0.1942  0.0828
10704SOL    HW136740   3.816   2.735   1.077  0.1021  1.0296 -0.1335
10704SOL    HW236741   3.943   2.671   0.997 -0.3219  2.9599 -2.3988
10705SOL     OW36742   3.019   0.955   3.342 -0.8786  0.1443 -0.3581
10705SOL    HW136743   2.945   0.887   3.345  0.0412 -0.8151  0.9931
10705SOL    HW236744   3.004   1.023   3.413 -0.7029  0.2188 -0.3934
10706SOL     OW36745   4.296   4.773   0.055 -0.8116 -0.9181  0.4594
10706SOL    HW136746   4.271   4.747   0.149 -0.1395 -1.5387  0.4741
10706SOL    HW236747   4.214   4.775  -0.002 -1.2029 -0.7128  1.0233
10707SOL     OW36748   7.895   1.661   0.060 -0.1181  0.2279 -0.1554
10707SOL    HW136749   7.957   1.737   0.078  0.2212 -0.0563 -0.1121
10707SOL    HW236750   7.943   1.590   0.008  0.2042 -0.8576  1.5519
10708SOL     OW36751   9.289   9.573   2.030 -0.0860  0.0569  0.0408
10708SOL    HW136752   9.316   9.489   2.076 -0.0549  0.0017 -0.0805
10708SOL    HW236753   9.339   9.583   1.944  0.5753  0.6432  0.4821
10709SOL     OW36754   2.976   7.892   3.779  0.6864  0.1449 -0.2539
10709SOL    HW136755   2.943   7.984   3.757 -2.2202 -0.7767  0.0284
10709SOL    HW236756   2.985   7.883   3.878  1.5044  0.3033 -0.3148
10710SOL     OW36757   5.352   0.392   1.578  0.0037  0.7852  0.3475
10710SOL    HW136758   5.384   0.436   1.494 -1.5116 -0.3784 -0.8830
10710SOL    HW236759   5.409   0.313   1.599 -0.3404  0.3670 -0.2748
10711SOL     OW36760   8.248   5.191   0.756  0.1434 -0.0927  0.3161
10711SOL    HW136761   8.206   5.101   0.768  1.1416 -0.6140 -0.0146
10711SOL    HW236762   8.342   5.189   0.788  0.1255  0.8872  0.4600
10712SOL     OW36763   1.296   4.270   3.583 -0.8170  0.5527 -1.1495
10712SOL    HW136764   1.257   4.357   3.612 -0.1223 -0.2192  2.2805
10712SOL    HW236765   1.223   4.201   3.579 -0.5274  0.0396  1.4683
10713SOL     OW36766   8.773   3.402   2.350  0.5317  0.4567 -0.7270
10713SOL    HW136767   8.848   3.439   2.405  0.4165 -0.1106 -0.1818
10713SOL    HW236768   8.791   3.305   2.331  0.0365  0.3734 -0.7634
10714SOL     OW36769   9.055   2.876   1.581  0.5101 -1.0395 -0.5714
10714SOL    HW136770   9.075   2.908   1.674 -1.3892 -1.7507  0.1074
10714SOL    HW236771   9.139   2.872   1.528  1.4244  0.6689  0.7162
10715SOL     OW36772   8.389   3.857   3.940  0.1504 -0.0137  0.6418
10715SOL    HW136773   8.345   3.799   4.008 -1.7587  0.9166  0.2463
10715SOL    HW236774   8.424   3.800   3.865 -0.7712 -0.7352  0.7527
10716SOL     OW36775   2.049   9.820   0.357 -0.0179  0.3938 -0.5040
10716SOL    HW136776   2.075   9.887   0.426 -0.3292  0.4649 -0.4565
10716SOL    HW236777   1.950   9.813   0.353  0.0153 -1.5990  0.9824
10717SOL     OW36778   6.368   7.170   1.989  0.3319  0.1271 -0.4848
10717SOL    HW136779   6.354   7.132   2.080  0.9050 -0.9705 -0.8428
10717SOL    HW236780   6.289   7.149   1.931  0.4485 -0.1390 -0.5506
10718SOL     OW36781   0.765   8.111   2.787  0.1467  0.3441 -0.0778
10718SOL    HW136782   0.685   8.131   2.844  0.3558  0.6749  0.0995
10718SOL    HW236783   0.782   8.188   2.725  0.5261  0.4076  0.1095
10719SOL     OW36784   2.041   4.621   4.319  0.1864 -0.4514  0.2674
10719SOL    HW136785   2.099   4.604   4.398  1.1992 -0.2896 -0.4304
10719SOL    HW236786   1.961   4.674   4.347  1.5242  1.3209  0.8410
10720SOL     OW36787   8.288   2.616   1.558  0.5642 -0.1309  0.1039
10720SOL    HW136788   8.334   2.537   1.518  1.6084  0.8282 -0.6501
10720SOL    HW236789   8.347   2.657   1.628  1.5901  1.9971 -1.9066
10721SOL     OW36790   1.569   7.142   3.654  0.0444  0.8680  0.0949
10721SOL    HW136791   1.562   7.199   3.737  1.5017  0.0081  0.8185
10721SOL    HW236792   1.554   7.046   3.678 -1.7927  0.8353 -1.0328
10722SOL     OW36793   2.265   6.043   3.097 -0.1003  0.2326 -0.1983
10722SOL    HW136794   2.169   6.016   3.102 -0.2493  0.3295 -2.1092
10722SOL    HW236795   2.321   5.962   3.076  0.0143  0.5205 -1.0080
10723SOL     OW36796   5.984   0.445   4.252 -0.2252  0.8387  0.4260
10723SOL    HW136797   6.074   0.447   4.206 -0.7249  1.9394 -0.5289
10723SOL    HW236798   5.968   0.354   4.289 -0.1466 -0.3544 -2.3357
10724SOL     OW36799   5.156   0.209   3.066 -0.5189  0.0611  0.0864
10724SOL    HW136800   5.092   0.132   3.063  0.1134 -0.4634  0.0160
10724SOL    HW236801   5.248   0.176   3.084 -0.1672  0.7613 -0.3782
10725SOL     OW36802   2.431   1.021   3.117  0.3527 -0.3898 -0.2884
10725SOL    HW136803   2.384   1.090   3.171  0.5708  0.1569 -0.7886
10725SOL    HW236804   2.519   0.999   3.160  0.5305  0.0519 -0.4207
10726SOL     OW36805   8.654   9.808   1.926  0.0239 -0.2048 -0.5727
10726SOL    HW136806   8.673   9.721   1.880  0.1440 -0.1214 -0.6827
10726SOL    HW236807   8.737   9.863   1.928 -0.4658  0.6177 -2.0473
10727SOL     OW36808   7.892   0.964   0.897  0.3858  0.1516  0.3680
10727SOL    HW136809   7.878   0.999   0.804  2.3752  0.3375  0.1188
10727SOL    HW236810   7.812   0.911   0.925  0.3215 -1.0288 -1.9609
10728SOL     OW36811   9.786   1.217   0.243 -0.0212  0.3378  1.0367
10728SOL    HW136812   9.786   1.189   0.339  1.3447 -1.7397  0.4555
10728SOL    HW236813   9.871   1.265   0.222  0.4707 -0.7727  0.4442
10729SOL     OW36814   2.119   9.490   2.459  0.7606  0.7961  0.0438
10729SOL    HW136815   2.057   9.413   2.462  0.2314  1.2599  1.4523
10729SOL    HW236816   2.157   9.499   2.367  2.3651 -2.3294  0.3259
10730SOL     OW36817   7.545   0.483   0.225 -0.7907 -0.0700  0.7070
10730SOL    HW136818   7.537   0.483   0.325 -2.0259  1.2726  0.6268
10730SOL    HW236819   7.457   0.510   0.185  0.0813  0.7010 -0.7149
10731SOL     OW36820   2.402   2.191   0.336  0.1977  0.1354  0.1930
10731SOL    HW136821   2.429   2.237   0.421  4.6691 -1.0685 -0.4446
10731SOL    HW236822   2.392   2.093   0.353  1.2563 -0.1344 -0.6559
10732SOL     OW36823   3.853   4.806   0.527 -0.1586  0.1254  0.2166
10732SOL    HW136824   3.807   4.718   0.530 -0.7438  0.3787 -0.9323
10732SOL    HW236825   3.940   4.797   0.478 -0.2811  0.2125 -0.0177
10733SOL     OW36826   6.339   0.870   2.180  0.8209 -0.2453 -0.1639
10733SOL    HW136827   6.316   0.921   2.263 -1.9106 -0.0198 -1.0145
10733SOL    HW236828   6.376   0.781   2.205 -0.7672 -0.5136  1.3098
10734SOL     OW36829   0.510   5.006   0.980  0.3013  0.3522  0.0821
10734SOL    HW136830   0.423   5.056   0.977  0.2296  0.2658  0.6948
10734SOL    HW236831   0.584   5.070   1.003  0.2586  0.2432  0.5268
10736SOL     OW36832   2.457   3.988   3.687 -0.0513 -0.2949  0.4218
10736SOL    HW136833   2.363   4.019   3.693  0.3015  0.5004  1.9539
10736SOL    HW236834   2.518   4.057   3.725  0.9754 -1.7331  1.4425
10738SOL     OW36835   9.930   7.709   4.307 -0.0521  0.7838 -0.2238
10738SOL    HW136836   9.865   7.640   4.277  1.4397  0.6728 -3.3950
10738SOL    HW236837   9.885   7.798   4.312 -0.8905  0.3798 -0.4664
10739SOL     OW36838   3.773   9.371   2.981  0.1380 -0.0114 -0.3191
10739SOL    HW136839   3.849   9.351   3.042 -0.9668 -1.3389  0.6579
10739SOL    HW236840   3.718   9.288   2.968 -0.7976  0.7793 -1.4813
10740SOL     OW36841   3.614   5.705   2.154  0.4787 -0.4109 -0.6447
10740SOL    HW136842   3.621   5.664   2.063  0.5283  0.2938 -0.9564
10740SOL    HW236843   3.664   5.648   2.220 -0.4108 -1.4768 -0.8661
10741SOL     OW36844   7.947   7.192   2.791 -0.4866  0.6663  0.2684
10741SOL    HW136845   7.941   7.288   2.819  1.1005  1.2663 -1.3672
10741SOL    HW236846   8.043   7.162   2.796 -0.6315 -0.1278 -1.5228
10743SOL     OW36847   2.820   1.272   1.082  0.3432  0.4917  0.0963
10743SOL    HW136848   2.800   1.178   1.108  2.0636 -0.0354 -0.4129
10743SOL    HW236849   2.776   1.335   1.147 -0.9216 -0.6456  0.3583
10747SOL     OW36850   4.305   3.226   0.023 -0.1177  0.1040  0.0652
10747SOL    HW136851   4.340   3.223  -0.071  0.7706 -0.7633  0.4147
10747SOL    HW236852   4.382   3.231   0.087 -0.4939 -3.6079  0.9241
10749SOL     OW36853   0.569   1.449   3.001  0.7539 -0.1254  0.0832
10749SOL    HW136854   0.595   1.411   2.912 -0.8335  1.6136 -1.1619
10749SOL    HW236855   0.584   1.548   3.001  0.6953 -0.1119  1.7273
10751SOL     OW36856   9.579   2.747   3.679 -0.1718  0.2693 -0.6871
10751SOL    HW136857   9.658   2.722   3.735 -0.1770 -0.4931 -1.0124
10751SOL    HW236858   9.538   2.831   3.715 -1.3437 -1.2323  1.6323
10752SOL     OW36859   4.608   5.787   1.038  0.5934  0.2651  0.5033
10752SOL    HW136860   4.566   5.771   1.127 -0.9332 -4.3321 -0.9040
10752SOL    HW236861   4.543   5.832   0.977  0.4088  0.1751  0.6365
10753SOL     OW36862   6.848   7.999   3.392 -0.1011  0.6637  0.1205
10753SOL    HW136863   6.791   7.982   3.473  0.9971 -0.1290  0.7386
10753SOL    HW236864   6.816   8.082   3.346 -2.2230 -0.1590  0.0259
10754SOL     OW36865   0.159   4.723   4.178  0.2317  0.1229 -0.1863
10754SOL    HW136866   0.195   4.764   4.094 -0.7990 -0.0195 -0.7079
10754SOL    HW236867   0.215   4.644   4.203 -0.5087 -0.9325 -1.7601
10755SOL     OW36868   9.957   7.322   3.376 -0.2664  0.4105  0.3924
10755SOL    HW136869   9.906   7.252   3.326  0.2364  0.5105 -0.2691
10755SOL    HW236870   9.957   7.300   3.474 -1.3829  0.2928  0.3726
10756SOL     OW36871   4.073   2.825   3.258  0.8861 -0.0226  0.0980
10756SOL    HW136872   4.062   2.808   3.356 -2.4005  0.3550 -0.1628
10756SOL    HW236873   4.053   2.921   3.238 -3.0360 -1.0697 -1.4952
10757SOL     OW36874   0.227   8.005   2.659 -0.3951  0.0088  0.3101
10757SOL    HW136875   0.139   8.030   2.619  0.5829  0.5395 -1.6060
10757SOL    HW236876   0.240   7.906   2.654 -0.6330 -0.0074  0.0453
10758SOL     OW36877   2.597   0.709   4.094 -0.4309 -0.3184  0.1322
10758SOL    HW136878   2.577   0.616   4.063  1.5970 -0.4260 -0.9488
10758SOL    HW236879   2.583   0.715   4.192 -1.3331 -1.5552  0.0901
10759SOL     OW36880   1.332   4.032   2.476 -0.0821  0.0486 -0.0413
10759SOL    HW136881   1.260   4.015   2.409 -0.7613 -1.9324  1.1553
10759SOL    HW236882   1.332   4.128   2.502 -0.4294  0.6385 -2.1586
10760SOL     OW36883   1.319   3.605   2.619  0.4343  0.1496  0.0401
10760SOL    HW136884   1.305   3.703   2.632  0.8055  0.2159 -0.0283
10760SOL    HW236885   1.397   3.575   2.676 -0.8457 -0.4760  1.5008
10762SOL     OW36886   7.698   9.132   0.282  1.1369 -0.0908 -0.0764
10762SOL    HW136887   7.744   9.215   0.315  1.1215  0.3761 -1.2218
10762SOL    HW236888   7.721   9.117   0.186  0.9839 -1.3129  0.0782
10763SOL     OW36889   1.040   1.001   3.148 -0.6312  0.1160 -0.0018
10763SOL    HW136890   1.074   1.036   3.235  0.1572  0.3165 -0.3874
10763SOL    HW236891   1.018   0.904   3.157 -0.0447  0.0070  0.2748
10765SOL     OW36892   2.331   7.345   4.031 -0.0754 -0.2310 -0.0490
10765SOL    HW136893   2.370   7.384   4.114 -0.2531 -0.8468  0.3280
10765SOL    HW236894   2.390   7.271   3.998 -0.0728 -0.0748 -0.3985
10766SOL     OW36895   3.749   4.059   1.792  1.3943  0.2158  0.3904
10766SOL    HW136896   3.726   3.986   1.855  1.5159  0.2156  0.4358
10766SOL    HW236897   3.805   4.127   1.839  3.0491 -0.6996 -0.1801
10767SOL     OW36898   8.233   8.732   2.087 -0.1487 -0.9079 -0.1454
10767SOL    HW136899   8.274   8.823   2.078  0.0395 -0.7017  2.5631
10767SOL    HW236900   8.306   8.664   2.102 -0.5636 -0.9072  1.9978
10769SOL     OW36901   0.010   2.902   0.344 -0.0141 -0.0558  0.1786
10769SOL    HW136902   0.096   2.869   0.383  0.5083  0.6672 -0.3541
10769SOL    HW236903   0.013   3.001   0.338 -0.9583 -0.0174  0.3101
10770SOL     OW36904   1.395   0.213   0.579 -0.3586  0.3772  0.6861
10770SOL    HW136905   1.399   0.127   0.527 -0.5998  1.2853 -0.8487
10770SOL    HW236906   1.478   0.266   0.563 -0.6636  0.8951  0.8180
10772SOL     OW36907   3.134   4.499   4.014 -0.3857  0.2706 -0.2604
10772SOL    HW136908   3.139   4.581   3.958 -1.2274  0.5712  0.0914
10772SOL    HW236909   3.208   4.437   3.990  0.5764  1.3692 -0.1542
10773SOL     OW36910   7.826   8.468   1.192  0.4842 -0.0023  0.0565
10773SOL    HW136911   7.784   8.377   1.191  0.1163  0.1674 -1.7531
10773SOL    HW236912   7.787   8.523   1.118 -1.3454  2.5755  2.7771
10774SOL     OW36913   3.230   2.563   4.136  0.2613 -0.4252 -0.1594
10774SOL    HW136914   3.262   2.622   4.062  1.0645 -0.9429 -0.2285
10774SOL    HW236915   3.277   2.475   4.132 -0.1243 -0.6742  0.6066
10775SOL     OW36916   1.991   9.408   0.535 -0.0421 -0.1444 -0.0490
10775SOL    HW136917   1.901   9.415   0.491  0.4527 -1.9552 -1.4105
10775SOL    HW236918   2.019   9.313   0.539  1.7289  0.3797  0.5810
10776SOL     OW36919   1.199   8.810   0.427 -0.0471 -0.1386  0.5376
10776SOL    HW136920   1.143   8.816   0.344  0.5028  0.1085  0.1836
10776SOL    HW236921   1.281   8.866   0.416 -0.3449  0.5175  1.5484
10777SOL     OW36922   8.227   0.280   4.152 -0.2805  0.8472 -0.8274
10777SOL    HW136923   8.250   0.325   4.066  1.1288 -0.5876 -1.2064
10777SOL    HW236924   8.301   0.219   4.179 -0.3887  1.7866  1.7669
10778SOL     OW36925   1.225   9.593   2.130  0.2323  0.0412 -0.6388
10778SOL    HW136926   1.274   9.509   2.109  0.2380  0.2752 -1.5842
10778SOL    HW236927   1.156   9.575   2.199  2.4344 -0.0538  1.6121
10780SOL     OW36928   9.759   0.526   1.059  0.3740 -0.3662 -0.3520
10780SOL    HW136929   9.688   0.547   0.991 -0.4018  1.3096  0.9328
10780SOL    HW236930   9.848   0.529   1.015 -0.1261  0.6303 -1.3390
10782SOL     OW36931   1.873   9.252   2.797 -0.2439  0.0601 -0.2970
10782SOL    HW136932   1.954   9.306   2.819 -1.0475  1.2823 -0.2743
10782SOL    HW236933   1.792   9.312   2.797 -1.5675 -1.6500  2.5484
10783SOL     OW36934   4.785   3.644   3.453 -0.2498 -0.2828 -0.1520
10783SOL    HW136935   4.687   3.639   3.471  0.0333  1.1739  2.1691
10783SOL    HW236936   4.812   3.740   3.443  0.9911 -0.6454 -0.4480
10784SOL     OW36937   1.410   7.896   2.557 -0.1072 -0.6485  0.2295
10784SOL    HW136938   1.408   7.797   2.544 -0.6738 -0.6600  0.3853
10784SOL    HW236939   1.394   7.941   2.468 -3.3017 -0.7273  0.6857
10785SOL     OW36940   1.085   9.337   4.078 -0.5983 -0.5187 -0.0519
10785SOL    HW136941   1.017   9.366   4.146 -1.1670  2.0466 -1.6171
10785SOL    HW236942   1.151   9.411   4.065  0.7059 -1.8034 -0.7979
10786SOL     OW36943   7.949   9.863   2.980 -0.1243 -0.2905 -0.8338
10786SOL    HW136944   7.849   9.859   2.982 -0.1009 -1.7566 -1.8911
10786SOL    HW236945   7.986   9.807   3.054 -0.0545 -5.0626 -4.2407
10787SOL     OW36946   8.340   6.552   0.717 -0.0215  0.2376  0.7503
10787SOL    HW136947   8.329   6.648   0.692 -2.1430 -0.5665 -1.6180
10787SOL    HW236948   8.297   6.536   0.806  1.1304  1.6323  1.5865
10788SOL     OW36949   9.291   8.872   2.454 -0.1747 -0.2794 -0.8414
10788SOL    HW136950   9.261   8.777   2.463 -1.1806  0.3368  2.7888
10788SOL    HW236951   9.377   8.885   2.505 -0.2834  0.8750 -0.9409
10789SOL     OW36952   3.557   4.814   2.199 -0.0675 -0.1492 -0.2459
10789SOL    HW136953   3.575   4.790   2.294  2.8301  0.6995 -0.5266
10789SOL    HW236954   3.547   4.913   2.191 -0.5195 -0.2403 -0.7744
10790SOL     OW36955   3.910   3.093   1.383 -0.0358  0.0096  0.2255
10790SOL    HW136956   3.917   3.188   1.415 -0.7900 -0.0625  0.6062
10790SOL    HW236957   3.964   3.034   1.443  1.2373  0.3330 -0.5947
10791SOL     OW36958   8.376   7.568   1.210  0.1780 -0.1594 -0.3335
10791SOL    HW136959   8.389   7.487   1.268  1.4979 -0.7151 -1.3734
10791SOL    HW236960   8.345   7.540   1.119 -0.7170  0.6180 -0.2774
10792SOL     OW36961   5.924   7.029   3.555  0.2433  0.9001 -0.4954
10792SOL    HW136962   5.987   7.037   3.632 -0.0150  0.3111 -0.2193
10792SOL    HW236963   5.840   6.984   3.585  0.2624  0.3931 -1.1931
10793SOL     OW36964   5.227   0.864   4.136 -0.3980  0.3792 -0.2159
10793SOL    HW136965   5.275   0.777   4.149  1.1169  1.4721  1.6551
10793SOL    HW236966   5.277   0.937   4.181 -3.1989  1.7555  0.7781
10794SOL     OW36967   7.748   1.118   2.386  0.1155 -0.2107 -0.0265
10794SOL    HW136968   7.727   1.025   2.356 -1.6013  0.0013  0.4761
10794SOL    HW236969   7.826   1.117   2.449 -0.6945 -1.4418  0.9630
10796SOL     OW36970   9.056   9.640   3.893  0.7810  0.2578  0.7190
10796SOL    HW136971   9.039   9.727   3.939 -1.8322  1.4650 -2.3146
10796SOL    HW236972   8.981   9.577   3.911 -1.0934  1.2799 -2.8877
10797SOL     OW36973   0.878   2.419   0.634 -0.2151  0.0695  0.0679
10797SOL    HW136974   0.943   2.482   0.593 -2.2187  1.9576 -0.2819
10797SOL    HW236975   0.853   2.348   0.567 -1.8581  1.9134 -1.3209
10798SOL     OW36976   9.891   8.391   3.944 -0.5738  0.0496 -0.5468
10798SOL    HW136977   9.857   8.484   3.953  0.5497  0.5136 -0.9901
10798SOL    HW236978   9.990   8.390   3.961 -0.8121 -1.2807  0.8483
10799SOL     OW36979   0.384   6.315   0.446  0.4271  0.5208 -0.0522
10799SOL    HW136980   0.442   6.319   0.365  0.1362 -0.1478 -0.2933
10799SOL    HW236981   0.396   6.227   0.492  1.5810  1.4075  1.3696
10802SOL     OW36982   2.427   6.314   0.164  0.6671 -0.6258 -0.6267
10802SOL    HW136983   2.456   6.311   0.068 -1.4102  0.4236 -1.3082
10802SOL    HW236984   2.436   6.222   0.204  1.7404 -1.0327 -1.7537
10803SOL     OW36985   7.036   9.100   3.586  0.5441  0.1465 -0.3950
10803SOL    HW136986   7.002   9.015   3.626  0.6442 -0.5134 -1.6993
10803SOL    HW236987   7.089   9.150   3.655 -0.8443 -0.0660  0.8532
10805SOL     OW36988   9.717   3.778   0.848  0.5125  0.7969  0.2689
10805SOL    HW136989   9.773   3.731   0.780 -0.5833  1.4752 -1.1455
10805SOL    HW236990   9.685   3.865   0.810 -0.1930  1.1490  1.6282
10806SOL     OW36991   0.793  10.000   0.293 -0.3436  0.4153 -0.3404
10806SOL    HW136992   0.876   9.952   0.265  0.2854  1.7224 -0.7724
10806SOL    HW236993   0.787  10.001   0.393  0.0886  0.1897 -0.3103
10807SOL     OW36994   4.311   0.923   3.393  0.1248 -0.0155 -0.4645
10807SOL    HW136995   4.409   0.938   3.382 -0.0477 -0.5494 -3.2432
10807SOL    HW236996   4.269   1.004   3.434  1.6127  0.4612  0.1483
10808SOL     OW36997   4.483   0.090   3.246 -0.1792 -0.1537  0.1515
10808SOL    HW136998   4.522   0.127   3.331  1.7011 -3.2840  0.7336
10808SOL    HW236999   4.410   0.026   3.268 -0.3296 -0.2664 -0.6633
10809SOL     OW37000   4.378   6.504   1.359  0.3348  0.2161  0.2289
10809SOL    HW137001   4.394   6.436   1.431 -1.3270  0.5981  0.9807
10809SOL    HW237002   4.280   6.520   1.350  0.4322 -0.5234 -2.7884
10810SOL     OW37003   1.174   2.475   1.751 -0.2036 -0.2499  0.2210
10810SOL    HW137004   1.162   2.406   1.822 -1.1916 -0.1676  0.1364
10810SOL    HW237005   1.144   2.564   1.784  0.0670 -0.0638 -0.0301
10811SOL     OW37006   8.687   0.735   3.386  0.1712 -0.5952 -0.1225
10811SOL    HW137007   8.649   0.655   3.432  0.2635  0.1602  1.3082
10811SOL    HW237008   8.787   0.736   3.398  0.2051 -0.4172 -0.3991
10812SOL     OW37009   5.305   8.374   2.948 -0.3645  0.3264  0.3692
10812SOL    HW137010   5.398   8.339   2.935 -0.6774 -0.6226  0.6292
10812SOL    HW237011   5.250   8.305   2.996 -0.5791  1.7800  2.2876
10813SOL     OW37012   5.039   4.451   2.030  0.4700 -0.6411  0.1392
10813SOL    HW137013   5.115   4.386   2.021 -0.4129 -1.7856  0.8007
10813SOL    HW237014   5.044   4.495   2.120  1.7896  1.1616 -0.7845
10814SOL     OW37015   7.494   7.837   3.090  0.0741  0.3626 -0.3796
10814SOL    HW137016   7.587   7.803   3.077  0.3631  1.2736 -0.7211
10814SOL    HW237017   7.496   7.934   3.114 -0.8533  1.0260 -2.7772
10815SOL     OW37018   4.177   9.683   2.355  0.3218  0.0617 -0.1309
10815SOL    HW137019   4.261   9.682   2.301  0.6410 -0.4674  0.3775
10815SOL    HW237020   4.117   9.608   2.326 -0.3886  0.9953 -1.1358
10816SOL     OW37021   8.829   3.788   0.663 -0.3116  0.6175 -0.7238
10816SOL    HW137022   8.786   3.838   0.738  2.2232  0.4293  0.9387
10816SOL    HW237023   8.858   3.698   0.695  0.4320  0.3706 -2.0408
10817SOL     OW37024   1.009   7.241   1.873 -0.2997 -0.4841 -0.0330
10817SOL    HW137025   0.992   7.160   1.929 -1.7557  0.9980  1.7396
10817SOL    HW237026   0.922   7.274   1.836  0.1293  0.9260  0.2004
10818SOL     OW37027   4.825   6.158   1.536 -0.5481  0.0032 -0.3908
10818SOL    HW137028   4.864   6.218   1.606  0.3399 -1.1742  0.1149
10818SOL    HW237029   4.839   6.199   1.446 -0.0424  0.6161 -0.0383
10819SOL     OW37030   1.202   8.647   1.589  0.4596 -0.4062 -0.1931
10819SOL    HW137031   1.232   8.729   1.540  1.3881 -0.9300 -0.5037
10819SOL    HW237032   1.281   8.598   1.625 -0.1434 -0.7067  0.7491
10820SOL     OW37033   1.406   6.175   3.488 -0.6404 -0.5762  0.1753
10820SOL    HW137034   1.325   6.227   3.460  0.4340  0.0668 -1.7842
10820SOL    HW237035   1.487   6.212   3.444  0.4118 -2.7735  0.1851
10821SOL     OW37036   5.014   1.585   3.397  0.2543  0.0977  0.2379
10821SOL    HW137037   5.012   1.638   3.482  0.0828  0.5574 -0.0527
10821SOL    HW237038   5.097   1.607   3.346  0.0078  0.3557 -0.0537
10822SOL     OW37039   1.905   6.574   1.298 -0.3933  0.4317 -0.2688
10822SOL    HW137040   1.901   6.673   1.284 -1.6019  0.4879  0.4002
10822SOL    HW237041   1.812   6.537   1.301  0.0072 -0.5239  0.7978
10823SOL     OW37042   9.017   4.630   2.523 -0.1936 -0.3249  0.4115
10823SOL    HW137043   9.054   4.573   2.450 -1.3309 -1.2985  0.5696
10823SOL    HW237044   9.047   4.594   2.611 -1.4086 -1.0564  0.5358
10825SOL     OW37045   6.905   9.216   3.930 -0.4927  0.0499  0.0821
10825SOL    HW137046   6.938   9.302   3.892  0.3357 -0.0977  0.4545
10825SOL    HW237047   6.977   9.174   3.985 -2.1518  1.0445  3.1451
10826SOL     OW37048   3.273   5.598   2.466  0.1233  0.0743 -0.1725
10826SOL    HW137049   3.319   5.545   2.395 -0.9091 -0.0143 -0.7734
10826SOL    HW237050   3.179   5.615   2.440  0.3067  1.7925  0.2561
10827SOL     OW37051   4.100   3.229   3.474 -0.1242 -0.1770  0.1411
10827SOL    HW137052   4.055   3.170   3.407 -0.3073  0.8357 -0.6426
10827SOL    HW237053   4.163   3.175   3.529 -0.4966 -1.1531 -0.3845
10829SOL     OW37054   7.395   1.365   3.150  0.5004  0.2597  0.1699
10829SOL    HW137055   7.475   1.338   3.096  0.7655 -1.0203  1.1936
10829SOL    HW237056   7.312   1.352   3.096  0.8761  0.4171 -0.4515
10830SOL     OW37057   9.665   2.853   2.852  0.8598  0.1371 -0.5557
10830SOL    HW137058   9.731   2.879   2.781  0.5244  1.3000 -0.4566
10830SOL    HW237059   9.703   2.877   2.942  0.6145  0.1428 -0.4542
10831SOL     OW37060   8.970   5.033   2.851 -0.1269  0.0730  0.8484
10831SOL    HW137061   8.999   4.942   2.878 -1.0101 -1.2601 -2.3766
10831SOL    HW237062   8.879   5.052   2.887 -0.3540 -0.7258  0.6842
10832SOL     OW37063   8.369   1.723   1.014 -0.5273 -0.5357 -0.4881
10832SOL    HW137064   8.360   1.701   1.111  0.2885  1.3938  0.0380
10832SOL    HW237065   8.457   1.688   0.980  1.9275  3.8341  0.9591
10833SOL     OW37066   4.729   1.991   1.651 -0.2177  0.3445  0.2384
10833SOL    HW137067   4.767   1.995   1.743 -1.0590  1.1114  0.5454
10833SOL    HW237068   4.781   2.053   1.591 -1.2946  1.7770  0.7725
10834SOL     OW37069   9.269   6.825   1.738 -0.0629 -0.8970  0.5524
10834SOL    HW137070   9.280   6.754   1.808  1.2869 -1.4504 -0.2031
10834SOL    HW237071   9.178   6.818   1.698 -1.4916  0.5012  3.4079
10835SOL     OW37072   7.698   9.747   0.121 -0.4724 -0.7243 -0.1349
10835SOL    HW137073   7.645   9.695   0.054  1.9476 -1.8185 -1.2525
10835SOL    HW237074   7.783   9.779   0.078 -1.0600  2.6304  1.0492
10836SOL     OW37075   2.290   6.448   1.079  0.0722 -0.4694 -0.4309
10836SOL    HW137076   2.213   6.504   1.049  0.1612 -0.8310 -1.3378
10836SOL    HW237077   2.367   6.461   1.017  0.0211 -1.7615 -0.7783
10837SOL     OW37078   6.301   0.556   2.554 -0.8236  0.0878  0.1323
10837SOL    HW137079   6.321   0.508   2.468  0.4394 -0.4210  0.7027
10837SOL    HW237080   6.359   0.520   2.626 -0.8045  1.5769  0.8707
10838SOL     OW37081   1.089   2.750   1.521 -0.2019  0.0140  0.6720
10838SOL    HW137082   1.173   2.696   1.516  0.8670  1.6896 -0.1629
10838SOL    HW237083   1.110   2.840   1.559 -1.0117  1.5697 -2.4476
10839SOL     OW37084   2.307   5.922   3.460  0.4522 -0.0651  0.0523
10839SOL    HW137085   2.300   6.021   3.452  0.0028  0.0909  2.0907
10839SOL    HW237086   2.237   5.879   3.402  1.1651  0.7744 -1.4454
10840SOL     OW37087   7.156   0.612   0.882 -0.5022 -0.1237 -0.4065
10840SOL    HW137088   7.171   0.708   0.906 -1.1137 -0.2182  0.3481
10840SOL    HW237089   7.073   0.604   0.827  0.0686 -0.1057 -1.2909
10842SOL     OW37090   0.072   1.632   0.956 -0.4196  0.0606 -0.1922
10842SOL    HW137091   0.081   1.719   0.908 -0.0299 -0.1577 -0.5084
10842SOL    HW237092   0.118   1.639   1.045 -2.0082  0.8012  0.6099
10843SOL     OW37093   9.459   0.235   0.211  0.1364 -0.3067 -0.6314
10843SOL    HW137094   9.504   0.206   0.127 -2.6272 -1.1919 -1.8764
10843SOL    HW237095   9.362   0.252   0.193 -0.1406  1.2337  1.9987
10844SOL     OW37096   3.123   9.954   1.717 -0.0058 -0.0233  0.4983
10844SOL    HW137097   3.093   9.938   1.811  1.2970  0.5241  1.0321
10844SOL    HW237098   3.103   9.874   1.661 -3.2150  0.6533  0.6025
10845SOL     OW37099   3.426   6.358   3.546 -0.0689 -0.1287 -0.1436
10845SOL    HW137100   3.431   6.370   3.645  2.1112  2.7449 -0.5346
10845SOL    HW237101   3.473   6.434   3.501 -1.9202 -0.8513 -3.4205
10846SOL     OW37102   2.115   6.385   2.758  0.2264  0.6544 -0.3214
10846SOL    HW137103   2.136   6.308   2.698 -0.2056  0.1928  0.1142
10846SOL    HW237104   2.180   6.459   2.742  0.1291  0.5241 -1.3426
10847SOL     OW37105   3.136   9.237   3.482 -0.0478  0.3072  0.0460
10847SOL    HW137106   3.096   9.223   3.391  0.9685 -1.6126 -0.1430
10847SOL    HW237107   3.090   9.176   3.547  0.6229  0.1778  0.3953
10848SOL     OW37108   8.920   5.644   1.078 -0.8500 -0.0508  0.3401
10848SOL    HW137109   8.883   5.575   1.016 -1.0630  1.0936 -0.8595
10848SOL    HW237110   8.913   5.734   1.034  1.0032  0.5083  1.1477
10850SOL     OW37111   9.331   1.529   2.227  0.4500  0.2931 -0.4463
10850SOL    HW137112   9.334   1.465   2.303  0.7707 -0.1382 -0.8241
10850SOL    HW237113   9.286   1.486   2.149 -1.2941  1.2452 -0.0172
10851SOL     OW37114   3.934   1.441   0.337 -0.1268  0.4037  0.3432
10851SOL    HW137115   3.968   1.523   0.382  0.8681  0.6516 -0.8213
10851SOL    HW237116   4.011   1.384   0.309 -0.8261 -1.1574  1.5562
10852SOL     OW37117   2.802   6.071   3.467  0.3947 -0.0200 -0.1343
10852SOL    HW137118   2.800   6.171   3.469 -1.2939  0.0804 -3.5581
10852SOL    HW237119   2.896   6.040   3.449  0.7602  0.9855 -0.0167
10853SOL     OW37120   9.743   6.918   1.522  0.6272 -0.0556 -0.0147
10853SOL    HW137121   9.803   6.942   1.446 -0.2455 -0.2243 -0.7572
10853SOL    HW237122   9.661   6.975   1.520 -0.9495 -2.3084 -1.1561
10855SOL     OW37123   2.882   3.922   1.644 -0.6761 -0.2409  0.3118
10855SOL    HW137124   2.891   3.994   1.713 -1.4588 -0.0902  0.2694
10855SOL    HW237125   2.791   3.929   1.601  0.6544  1.1894 -2.4115
10856SOL     OW37126   7.070   8.578   2.431  0.5299  0.8903 -0.4730
10856SOL    HW137127   7.069   8.489   2.476  0.7248  0.7137 -0.8140
10856SOL    HW237128   7.069   8.566   2.331  2.4573  1.2160 -0.5539
10857SOL     OW37129   2.480   4.139   1.618  0.1758 -0.3843  0.0002
10857SOL    HW137130   2.510   4.050   1.582 -1.0935 -1.1788  0.8498
10857SOL    HW237131   2.409   4.177   1.558  1.8345  0.8102 -1.2217
10858SOL     OW37132   2.682   6.074   1.807 -0.1789 -0.0819  0.0808
10858SOL    HW137133   2.632   5.991   1.831  0.0950 -0.6104 -1.1314
10858SOL    HW237134   2.621   6.152   1.811 -0.7593 -0.5252 -0.0560
10859SOL     OW37135   2.845   4.222   2.477 -0.5820 -0.0358  0.1273
10859SOL    HW137136   2.762   4.180   2.513 -0.0956 -0.4031  0.8436
10859SOL    HW237137   2.907   4.242   2.553  0.8508 -1.6765 -0.5787
10860SOL     OW37138   1.798   4.286   1.053 -0.7807  0.1845  0.4135
10860SOL    HW137139   1.870   4.223   1.023 -0.3883 -0.5480  2.7894
10860SOL    HW237140   1.713   4.264   1.005 -0.2173 -1.0372 -0.0450
10861SOL     OW37141   1.413   9.659   1.932  0.2729 -0.3149  0.0198
10861SOL    HW137142   1.429   9.607   1.849  3.7420 -2.3529  1.8465
10861SOL    HW237143   1.336   9.620   1.983 -0.6417 -0.2071 -1.2578
10863SOL     OW37144   3.760   2.176   3.727  0.1020 -0.0511  0.2880
10863SOL    HW137145   3.675   2.154   3.679 -0.3518  2.1954  0.0257
10863SOL    HW237146   3.805   2.091   3.755 -1.5077 -1.2976 -0.8099
10866SOL     OW37147   7.866   3.068   1.259  0.0923  0.2076 -0.5048
10866SOL    HW137148   7.949   3.120   1.280 -0.1151 -0.0296  0.9231
10866SOL    HW237149   7.890   2.971   1.251  0.0680  0.2248 -0.8006
10867SOL     OW37150   9.796   8.084   3.230  0.5616  0.5123 -0.1883
10867SOL    HW137151   9.828   8.038   3.313  0.1019 -0.9535 -0.8103
10867SOL    HW237152   9.862   8.155   3.203  0.6535  1.0785  1.4860
10868SOL     OW37153   8.511   2.588   3.691  0.4025  0.1142  0.1609
10868SOL    HW137154   8.599   2.626   3.661 -0.7493  2.7898  0.0770
10868SOL    HW237155   8.503   2.596   3.791  0.9838 -1.8155  0.3977
10869SOL     OW37156   8.133   2.877   0.792 -0.3217  0.4636 -0.1674
10869SOL    HW137157   8.094   2.895   0.882 -1.3120 -1.9185 -0.0796
10869SOL    HW237158   8.060   2.866   0.724  0.3420  0.3892 -0.8819
10870SOL     OW37159   1.509   4.979   2.798  0.2312  0.3484 -0.3931
10870SOL    HW137160   1.561   4.939   2.722  0.8945 -0.4531  0.4684
10870SOL    HW237161   1.552   5.064   2.827 -0.4074  1.0093 -1.3455
10871SOL     OW37162   3.816   4.202   2.801  0.2102  0.3493  0.7085
10871SOL    HW137163   3.886   4.220   2.731 -0.1292  1.7948  0.7202
10871SOL    HW237164   3.729   4.241   2.770 -1.0363 -3.0012 -0.1243
10872SOL     OW37165   1.995   5.194   0.149 -0.1999  0.2494 -0.0427
10872SOL    HW137166   1.950   5.191   0.238  0.6729  0.3720  0.4019
10872SOL    HW237167   2.037   5.284   0.136 -2.5947  1.1875 -1.7001
10873SOL     OW37168   1.395   4.149   1.474  0.2149  0.1165 -0.5547
10873SOL    HW137169   1.349   4.080   1.418  1.2539  0.1238 -1.4280
10873SOL    HW237170   1.405   4.233   1.422 -1.2704  1.0328  0.5990
10874SOL     OW37171   4.961   9.532   1.661 -0.2236 -0.3332 -0.4250
10874SOL    HW137172   4.897   9.581   1.719  2.6627 -0.6205  3.2010
10874SOL    HW237173   4.942   9.434   1.665 -0.1118 -0.3401 -0.0282
10875SOL     OW37174   8.724   3.065   2.631  0.1797 -0.4630  0.2787
10875SOL    HW137175   8.668   3.103   2.704 -0.0571  1.6619 -0.9677
10875SOL    HW237176   8.668   3.005   2.573 -0.1624 -0.3905  0.5374
10876SOL     OW37177   2.959   1.983   3.359 -0.3866 -0.0756 -0.2710
10876SOL    HW137178   2.864   1.956   3.373  0.4606 -3.3854 -0.4540
10876SOL    HW237179   2.968   2.032   3.272 -1.7163 -0.8816 -0.8670
10877SOL     OW37180   8.255   3.333   0.656  0.0219 -0.4204  0.4590
10877SOL    HW137181   8.160   3.302   0.663 -0.1409 -0.3762 -1.3310
10877SOL    HW237182   8.288   3.317   0.563  1.3839  0.6715  0.7432
10878SOL     OW37183   4.386   4.595   1.427  0.1572  0.3130  0.0306
10878SOL    HW137184   4.454   4.667   1.441  0.5108  0.5386 -2.6561
10878SOL    HW237185   4.296   4.636   1.413  0.1751  0.1897 -0.4453
10879SOL     OW37186   0.033   9.698   2.868  0.1201  0.0297 -0.3801
10879SOL    HW137187  -0.023   9.689   2.950 -0.1656  0.2040 -0.5531
10879SOL    HW237188   0.033   9.611   2.818 -0.0359  0.0422 -0.4030
10880SOL     OW37189   1.394   9.718   2.304  0.1181  0.1563 -0.4213
10880SOL    HW137190   1.330   9.674   2.242 -3.2082 -1.4414  3.8646
10880SOL    HW237191   1.364   9.812   2.321 -0.5042 -0.2490  0.7573
10881SOL     OW37192   3.697   7.036   4.119  0.5308  0.5888 -0.3222
10881SOL    HW137193   3.781   6.995   4.155 -1.0114 -2.0475  0.4473
10881SOL    HW237194   3.654   7.092   4.190  0.5780  0.2565 -0.0294
10882SOL     OW37195   0.195   0.337   0.537 -0.1296  0.3733  0.3621
10882SOL    HW137196   0.258   0.263   0.513  0.8121  1.2069  0.2141
10882SOL    HW237197   0.241   0.400   0.600 -1.2751  0.2679  1.3147
10883SOL     OW37198   8.945   7.351   0.491 -0.2738  0.4427 -0.4070
10883SOL    HW137199   9.033   7.348   0.537 -1.4007  1.7190  1.9617
10883SOL    HW237200   8.925   7.445   0.463 -0.9911  0.2187 -0.6757
10884SOL     OW37201   2.413   8.891   3.979  0.6042  0.2847 -0.4760
10884SOL    HW137202   2.379   8.883   4.073  0.3883 -0.4465 -0.6119
10884SOL    HW237203   2.512   8.876   3.979  0.3569 -1.4879 -0.5845
10885SOL     OW37204   8.101   6.546   3.818 -0.7125 -0.6793  0.4893
10885SOL    HW137205   8.018   6.585   3.778 -0.4411 -0.8385 -0.2384
10885SOL    HW237206   8.079   6.457   3.859 -0.9864 -0.5243  0.6858
10886SOL     OW37207   1.272   8.516   0.129 -0.1417  0.1435 -0.0257
10886SOL    HW137208   1.293   8.420   0.146 -2.6527 -0.3660  0.4179
10886SOL    HW237209   1.353   8.562   0.095  0.8524 -2.3726 -1.2141
10888SOL     OW37210   2.196   9.912   2.654 -0.0255 -0.0468  0.0327
10888SOL    HW137211   2.166   9.991   2.602  0.9720  1.3434  1.5132
10888SOL    HW237212   2.169   9.923   2.750  0.3400 -1.3674  0.2991
10889SOL     OW37213   3.570   7.169   2.631  0.0987  0.1378 -0.7763
10889SOL    HW137214   3.606   7.249   2.680 -0.2712 -0.4542  0.4717
10889SOL    HW237215   3.589   7.179   2.533  0.6371  1.4442 -0.5495
10890SOL     OW37216   4.893   9.454   2.408  0.3016  0.1461 -0.3967
10890SOL    HW137217   4.971   9.471   2.468 -1.2224  1.7317  1.1860
10890SOL    HW237218   4.881   9.356   2.396  1.9204 -0.1356  0.1821
10892SOL     OW37219   3.542   6.226   3.188  0.4569  0.2762 -0.0005
10892SOL    HW137220   3.540   6.326   3.195 -0.1332  0.4237 -2.0273
10892SOL    HW237221   3.517   6.198   3.095  1.4386 -1.7268  0.2969
10893SOL     OW37222   8.868   4.109   0.851 -0.4385  0.3150  0.6215
10893SOL    HW137223   8.866   4.190   0.908  1.5170  0.8139  0.0289
10893SOL    HW237224   8.887   4.028   0.907 -2.9220  0.1399  1.2927
10894SOL     OW37225   0.719   4.092   0.376 -0.5069  0.7060 -0.1875
10894SOL    HW137226   0.793   4.025   0.369 -2.1121 -1.4718  2.8710
10894SOL    HW237227   0.669   4.095   0.289 -0.0829 -1.6720 -0.5505
10895SOL     OW37228   2.947   2.182   0.060 -0.2838  0.1590 -0.4491
10895SOL    HW137229   2.868   2.236   0.088  0.2000  0.2571  0.7496
10895SOL    HW237230   3.028   2.240   0.057  0.2969 -0.5512  1.1380
10896SOL     OW37231   5.801   0.373   1.696 -0.3309 -0.8722 -0.3569
10896SOL    HW137232   5.770   0.342   1.607 -0.8467 -0.6428 -0.2568
10896SOL    HW237233   5.723   0.391   1.755 -0.1014  1.2585 -0.6250
10897SOL     OW37234   3.777   7.206   2.914  0.5275  0.3437  0.2237
10897SOL    HW137235   3.823   7.294   2.901  1.7113 -0.0376  1.6526
10897SOL    HW237236   3.806   7.142   2.842  1.5665  0.3729  0.6151
10898SOL     OW37237   1.365   3.007   3.140  0.2741  0.0282 -0.2302
10898SOL    HW137238   1.296   3.036   3.074 -1.6401  0.8767  2.0526
10898SOL    HW237239   1.334   2.924   3.187  0.4463  0.8089  1.3171
10900SOL     OW37240   7.850   4.021   1.329 -0.0857 -0.0771 -0.1481
10900SOL    HW137241   7.778   3.958   1.299 -0.3176 -0.3930  1.0427
10900SOL    HW237242   7.866   4.009   1.427 -0.3848  1.9747  0.1714
10902SOL     OW37243   9.610   0.067   3.929  0.4602  0.6331  0.2952
10902SOL    HW137244   9.595   0.132   3.855  0.2572  0.8922  0.5645
10902SOL    HW237245   9.692   0.094   3.980  0.8009  0.2571 -0.0483
10903SOL     OW37246   8.546   2.205   3.399 -0.1705 -0.0781  0.3616
10903SOL    HW137247   8.486   2.137   3.357 -0.3437  1.0780 -1.2890
10903SOL    HW237248   8.492   2.284   3.428  0.4272  0.5520 -0.2509
10904SOL     OW37249   2.737   6.580   0.505  0.0732 -0.0022  0.0781
10904SOL    HW137250   2.666   6.554   0.440 -0.0079 -1.3657  0.7002
10904SOL    HW237251   2.701   6.648   0.570 -0.8612 -1.1746  0.7970
10907SOL     OW37252   7.344   7.828   2.198 -0.0415  0.0168 -0.7075
10907SOL    HW137253   7.341   7.765   2.121  0.3223  0.6839 -1.2808
10907SOL    HW237254   7.374   7.918   2.166 -0.1252  0.3651  0.1705
10909SOL     OW37255   2.522   5.184   1.371 -0.0060  0.1025  0.5191
10909SOL    HW137256   2.486   5.095   1.399 -0.0838 -0.0719 -0.1274
10909SOL    HW237257   2.607   5.203   1.421  0.7026 -0.9155 -0.2778
10911SOL     OW37258   4.252   8.967   2.793 -0.2082  0.0901  0.1066
10911SOL    HW137259   4.238   8.965   2.694 -1.6895 -0.3688  0.3055
10911SOL    HW237260   4.232   9.058   2.828  0.5540  0.3164 -0.0532
10913SOL     OW37261   0.555   3.438   2.226 -0.0008  0.2536  0.1849
10913SOL    HW137262   0.638   3.461   2.173  0.1728  0.4885  0.5574
10913SOL    HW237263   0.568   3.350   2.271  0.4321  0.7574  1.0472
10914SOL     OW37264   5.571   7.104   2.760 -0.1811  0.2350  0.1091
10914SOL    HW137265   5.539   7.036   2.826 -1.8354  0.7569 -0.1150
10914SOL    HW237266   5.494   7.133   2.703  0.2672  3.0091  0.8478
10915SOL     OW37267   3.046   1.201   1.487 -0.3174  0.5738 -0.0785
10915SOL    HW137268   3.017   1.286   1.443 -0.2657  0.2985 -0.6539
10915SOL    HW237269   3.063   1.218   1.584 -2.3001  0.7495  0.2578
10917SOL     OW37270   0.259   2.337   1.953 -0.1208 -0.0816  0.4902
10917SOL    HW137271   0.331   2.394   1.915 -0.3480 -0.3595 -0.3536
10917SOL    HW237272   0.173   2.354   1.905 -0.5337 -0.0308  1.2378
10918SOL     OW37273   2.397   5.830   4.115  0.3174 -0.1544  0.1128
10918SOL    HW137274   2.350   5.879   4.041  0.3613 -0.6102 -0.2147
10918SOL    HW237275   2.430   5.896   4.182  0.3188  0.2636 -0.2953
10919SOL     OW37276   1.597   2.109   1.290 -0.1945 -0.3144  0.3439
10919SOL    HW137277   1.677   2.161   1.319 -1.4156  1.7251  0.1272
10919SOL    HW237278   1.528   2.111   1.362 -0.9497 -0.1227 -0.3780
10921SOL     OW37279   3.464   0.893   3.680 -0.0668  0.4629 -0.2368
10921SOL    HW137280   3.476   0.834   3.600  0.9105  1.8302 -1.1162
10921SOL    HW237281   3.486   0.843   3.763 -0.8239 -0.8898 -0.8426
10923SOL     OW37282   9.080   8.548   1.453 -0.0916  0.1354  0.1172
10923SOL    HW137283   9.007   8.510   1.398  1.2986 -2.7088  0.1566
10923SOL    HW237284   9.053   8.547   1.550 -0.6998  0.7947 -0.0435
10925SOL     OW37285   2.621   1.304   0.468 -0.1494  1.2122 -0.0253
10925SOL    HW137286   2.592   1.376   0.405 -1.1717  0.8253 -0.0042
10925SOL    HW237287   2.715   1.277   0.447 -0.5989  0.8263 -1.6309
10926SOL     OW37288   2.931   9.056   1.244  0.0715 -0.0024  0.6308
10926SOL    HW137289   3.002   9.125   1.234 -0.5583  0.4882 -0.5234
10926SOL    HW237290   2.864   9.086   1.313 -0.2002  0.5403  0.1340
10927SOL     OW37291   1.093   1.203   2.561 -0.2762  0.1728 -0.2993
10927SOL    HW137292   1.098   1.111   2.524  1.5755 -0.8916  2.4169
10927SOL    HW237293   1.160   1.261   2.514  0.5423 -0.5955 -0.0938
10928SOL     OW37294   8.072   1.979   3.896 -0.1269 -0.3043  0.0101
10928SOL    HW137295   8.051   2.063   3.946 -2.5133 -0.3686 -0.8341
10928SOL    HW237296   8.001   1.962   3.828  0.4885 -2.8727 -0.0365
10929SOL     OW37297   3.974   0.194   0.554 -1.1938  0.0060 -0.0196
10929SOL    HW137298   3.933   0.258   0.620 -0.6610  0.8680 -0.5112
10929SOL    HW237299   4.026   0.124   0.602 -1.1970  0.3617  0.5008
10930SOL     OW37300   6.267   0.499   1.464  0.2896  0.3626  0.4253
10930SOL    HW137301   6.265   0.497   1.364  1.7250 -1.5090  0.4354
10930SOL    HW237302   6.193   0.441   1.500 -0.2410  1.0533  0.4751
10931SOL     OW37303   7.613   6.991   3.511 -0.0677  0.1316 -0.6251
10931SOL    HW137304   7.660   7.015   3.595 -0.6403  1.8130 -0.7793
10931SOL    HW237305   7.666   7.022   3.432  0.3100 -1.1539 -0.9037
10932SOL     OW37306   6.855   8.543   4.235  0.2984 -0.2005 -0.5885
10932SOL    HW137307   6.797   8.464   4.258 -1.3943  0.3632 -2.7542
10932SOL    HW237308   6.824   8.623   4.287  1.3847 -0.7007  0.8623
10933SOL     OW37309   0.944   4.075   2.483 -0.3786  0.2302 -0.1348
10933SOL    HW137310   0.929   4.041   2.577  1.7825 -0.6135 -0.0766
10933SOL    HW237311   0.899   4.014   2.419  1.2463 -1.3002  0.1460
10934SOL     OW37312   0.230   4.161   0.316  0.0033 -0.0357  0.6353
10934SOL    HW137313   0.245   4.209   0.229  0.8280 -0.7918  0.3557
10934SOL    HW237314   0.274   4.212   0.390 -0.0271  0.1932  0.4990
10937SOL     OW37315   9.640   4.917   0.216  0.4620 -0.2310 -0.0502
10937SOL    HW137316   9.602   4.996   0.169  1.9345  0.4421 -0.1596
10937SOL    HW237317   9.607   4.915   0.311  1.1873  1.0870  0.2452
10938SOL     OW37318   1.197   1.016   3.769 -0.7147  1.4813  0.1802
10938SOL    HW137319   1.194   0.966   3.683  1.3610  1.4152  0.1129
10938SOL    HW237320   1.139   1.098   3.763 -1.9900  0.5327 -0.6319
10939SOL     OW37321   9.789   6.977   3.508  0.7726 -0.0295 -0.4908
10939SOL    HW137322   9.775   6.883   3.539  1.1970 -0.4783 -1.6409
10939SOL    HW237323   9.707   7.031   3.529 -0.0276 -0.9895 -1.0780
10940SOL     OW37324   9.044   1.071   4.082 -0.2943 -0.2207 -0.1584
10940SOL    HW137325   9.095   1.088   3.998  1.2494 -1.0785  0.5755
10940SOL    HW237326   8.956   1.118   4.078  0.4474  1.0975 -1.5597
10941SOL     OW37327   7.752   0.586   2.108 -0.0220  0.4979  0.6351
10941SOL    HW137328   7.776   0.524   2.033 -1.6465 -0.3754  0.8111
10941SOL    HW237329   7.772   0.680   2.081 -0.6988  0.2062 -0.9584
10943SOL     OW37330   0.547   7.463   1.798 -0.5358 -0.1673 -0.9033
10943SOL    HW137331   0.615   7.496   1.733 -0.7855 -0.0731 -1.1177
10943SOL    HW237332   0.455   7.486   1.765 -0.5770  2.3445  0.8162
10944SOL     OW37333   1.079   6.978   2.456 -0.4294  0.2858 -0.0530
10944SOL    HW137334   1.122   6.888   2.464 -1.1232 -0.1534 -1.0767
10944SOL    HW237335   0.990   6.977   2.502 -0.3945  0.4660  0.0167
10945SOL     OW37336   2.909   6.558   4.088 -0.4202 -0.0343  0.2854
10945SOL    HW137337   2.997   6.511   4.083 -0.4097  0.0799 -0.6785
10945SOL    HW237338   2.838   6.503   4.045 -0.4347  0.7568 -0.7255
10946SOL     OW37339   6.876   0.522   0.362 -0.2837 -0.3665 -0.4148
10946SOL    HW137340   6.936   0.590   0.320 -3.4982  1.9420 -1.4899
10946SOL    HW237341   6.887   0.434   0.316  1.4691  0.2843 -1.2880
10947SOL     OW37342   2.239   8.669   0.162 -0.6924 -0.3863  0.5466
10947SOL    HW137343   2.264   8.765   0.147  1.0795 -1.0983 -1.4592
10947SOL    HW237344   2.238   8.649   0.259 -0.2027  1.4386  0.9448
10948SOL     OW37345   8.725   4.890   2.671 -0.4784 -0.3791  0.2959
10948SOL    HW137346   8.673   4.949   2.733 -1.2739 -0.0745 -0.6388
10948SOL    HW237347   8.763   4.946   2.597 -1.4370 -1.0565 -0.7295
10949SOL     OW37348   9.471   1.655   3.995 -0.0640 -0.3755  0.0935
10949SOL    HW137349   9.407   1.600   3.942  1.3222 -1.5416 -0.3958
10949SOL    HW237350   9.478   1.619   4.088 -0.9282  0.4194  0.4795
10950SOL     OW37351   8.567   1.566   0.377 -0.3500 -0.2703  0.1570
10950SOL    HW137352   8.482   1.617   0.386  0.1244  0.4181  0.8260
10950SOL    HW237353   8.571   1.523   0.287 -0.6042  1.1715 -0.5538
10951SOL     OW37354   1.988   6.454   4.271 -0.0309  0.2197  0.3227
10951SOL    HW137355   1.988   6.363   4.229  1.0395 -0.6323  2.1037
10951SOL    HW237356   1.956   6.447   4.366  2.7539  1.2347  1.3775
10952SOL     OW37357   5.672   7.228   3.762 -0.6363 -0.3087 -0.0472
10952SOL    HW137358   5.605   7.196   3.695 -0.5399 -2.1547  0.6959
10952SOL    HW237359   5.627   7.237   3.852 -0.6133  1.5185 -0.2005
10953SOL     OW37360   2.188   2.353   2.738 -0.5164 -0.0302  0.1399
10953SOL    HW137361   2.260   2.416   2.709  1.9386 -1.4569  2.8697
10953SOL    HW237362   2.180   2.355   2.838 -2.1349 -2.1625  0.0933
10955SOL     OW37363   2.841   6.041   1.576 -0.0556  0.2115  0.2063
10955SOL    HW137364   2.790   6.017   1.493  1.4250  1.9188 -1.2558
10955SOL    HW237365   2.778   6.054   1.652 -1.6593  0.7420 -1.1806
10956SOL     OW37366   9.866   9.688   1.696  0.5813  0.3476 -0.3451
10956SOL    HW137367   9.770   9.695   1.670  0.6328 -0.0015 -0.6258
10956SOL    HW237368   9.923   9.692   1.614  0.7743 -0.0731 -0.2347
10957SOL     OW37369   8.817   7.701   2.403 -0.4562  0.0795 -0.2830
10957SOL    HW137370   8.772   7.618   2.369  0.4615  0.1198 -1.6626
10957SOL    HW237371   8.751   7.758   2.452 -1.5482 -0.5663 -0.9879
10959SOL     OW37372   0.059   1.004   2.212 -0.5057  0.4080  0.2786
10959SOL    HW137373   0.026   0.911   2.227  1.6397 -0.0768  2.3175
10959SOL    HW237374   0.034   1.062   2.289 -1.8899  1.5716 -1.0103
10960SOL     OW37375   3.380   4.954   1.753  0.4418 -0.4849  0.0661
10960SOL    HW137376   3.367   5.045   1.713 -0.4766 -0.8816 -0.5636
10960SOL    HW237377   3.396   4.963   1.851  2.0050  0.4579 -0.2456
10961SOL     OW37378   0.462   8.939   1.200 -0.0152  0.4846 -0.2519
10961SOL    HW137379   0.533   8.882   1.160 -1.6284 -1.0776 -0.9479
10961SOL    HW237380   0.444   9.017   1.141  0.5750  0.4571 -0.4651
10963SOL     OW37381   3.419   6.573   1.343 -0.1123 -0.4589 -0.2816
10963SOL    HW137382   3.485   6.559   1.269  2.0454  1.2354  1.2827
10963SOL    HW237383   3.406   6.671   1.358 -0.6824 -0.7847  1.4457
10965SOL     OW37384   3.783   4.458   1.199  0.5935  0.0940  0.1138
10965SOL    HW137385   3.756   4.441   1.104  0.4048  0.8047  0.0356
10965SOL    HW237386   3.871   4.415   1.218  0.6925  0.0639 -0.4211
10966SOL     OW37387   2.334   0.278   0.556 -0.1193  0.0378 -0.2821
10966SOL    HW137388   2.329   0.377   0.569 -0.7205 -0.0341  0.0358
10966SOL    HW237389   2.283   0.252   0.474 -1.2940 -0.1852  0.5088
10967SOL     OW37390   1.901   9.155   1.926 -0.3262 -0.5020 -0.5213
10967SOL    HW137391   1.865   9.063   1.940 -1.9967  0.3832  1.3029
10967SOL    HW237392   1.964   9.178   2.000  1.3603 -0.7671 -1.8528
10968SOL     OW37393   0.913   4.312   0.351  0.0856 -0.0517  0.2565
10968SOL    HW137394   0.826   4.263   0.356 -0.5423  0.8308 -1.6934
10968SOL    HW237395   0.910   4.391   0.413 -1.1572  0.9487 -1.0534
10969SOL     OW37396   4.465   9.607   2.304  0.6384 -0.3260 -0.1175
10969SOL    HW137397   4.558   9.588   2.272  1.0732  0.9256  0.3787
10969SOL    HW237398   4.459   9.702   2.335 -0.5329 -0.7155  0.8736
10970SOL     OW37399   7.155   9.968   1.453 -0.6685  0.2071  0.1802
10970SOL    HW137400   7.205   9.881   1.454 -0.3079  0.4041  1.4617
10970SOL    HW237401   7.152  10.005   1.546 -1.7775  1.0247 -0.1702
10971SOL     OW37402   3.893   8.739   1.801  0.7551 -0.0882  0.0442
10971SOL    HW137403   3.901   8.650   1.756 -1.1036  0.3870 -1.2955
10971SOL    HW237404   3.799   8.753   1.831  0.7673  1.8364 -0.6868
10972SOL     OW37405   1.884   8.208   3.727  0.2167  0.5162  0.8510
10972SOL    HW137406   1.829   8.124   3.727  1.2201 -0.1967 -1.7585
10972SOL    HW237407   1.827   8.286   3.752 -0.6101 -0.9881  3.8281
10975SOL     OW37408   2.716   4.224   3.204  0.2074  0.4786 -0.2659
10975SOL    HW137409   2.812   4.253   3.205  0.1646  0.6031  0.2077
10975SOL    HW237410   2.709   4.134   3.161  0.7274 -0.1813  0.9958
10977SOL     OW37411   2.329   2.559   1.138 -0.4196  0.7566  0.1171
10977SOL    HW137412   2.406   2.504   1.107 -0.2677  1.7084 -1.2470
10977SOL    HW237413   2.252   2.499   1.161  0.3154 -0.1159  0.3330
10980SOL     OW37414   0.951   2.104   2.348  0.2353  0.3016 -0.2037
10980SOL    HW137415   0.914   2.044   2.419  0.2585  0.4269 -0.0845
10980SOL    HW237416   0.918   2.075   2.259  0.8994 -0.3918 -0.2334
10981SOL     OW37417   3.706   6.365   2.877  0.2964  0.1408  1.0694
10981SOL    HW137418   3.695   6.462   2.854  1.8171  0.1786  0.4751
10981SOL    HW237419   3.618   6.329   2.910 -0.8526  1.1862 -0.7209
10982SOL     OW37420   2.425   7.381   1.024  0.0081  0.4730  0.1781
10982SOL    HW137421   2.489   7.371   1.100 -1.4674 -2.1701  1.1691
10982SOL    HW237422   2.331   7.383   1.060 -0.7864 -2.2628 -1.5902
10983SOL     OW37423   2.623   4.911   1.781  0.0395  0.3887 -0.3124
10983SOL    HW137424   2.549   4.857   1.741  1.8080 -1.3041 -1.3939
10983SOL    HW237425   2.617   4.908   1.881 -1.1395 -0.0108 -0.3930
10984SOL     OW37426   6.382   8.441   2.930 -0.1184 -0.8624  0.5996
10984SOL    HW137427   6.448   8.483   2.992 -1.1879  0.6091  0.7806
10984SOL    HW237428   6.430   8.378   2.868  1.8495  1.9923 -0.8888
10985SOL     OW37429   9.819   8.715   1.770  0.6431 -0.0397 -0.5588
10985SOL    HW137430   9.792   8.685   1.861 -0.9482 -1.0986 -1.3674
10985SOL    HW237431   9.909   8.677   1.748  0.7732 -0.2565  0.3178
10986SOL     OW37432   0.324   6.087   3.352 -0.0293  0.5820 -0.1112
10986SOL    HW137433   0.330   6.011   3.417  0.8344  1.3115  0.6834
10986SOL    HW237434   0.296   6.170   3.401 -0.9615  0.7741 -0.9727
10989SOL     OW37435   3.416   6.748   0.908 -0.4598  0.0067 -0.1152
10989SOL    HW137436   3.322   6.719   0.928 -0.4542 -0.9661 -1.4393
10989SOL    HW237437   3.442   6.717   0.817  1.7951 -1.4186  0.9556
10990SOL     OW37438   6.876   1.880   3.077  0.0856 -0.4186 -0.6042
10990SOL    HW137439   6.964   1.840   3.053  0.3135 -0.0726 -0.3509
10990SOL    HW237440   6.883   1.980   3.076 -0.2356 -0.3919 -0.3302
10992SOL     OW37441   3.982   9.501   2.306  0.1879  0.1144  0.2292
10992SOL    HW137442   3.930   9.490   2.221 -0.2003  2.2511  0.1622
10992SOL    HW237443   3.961   9.426   2.368 -0.7633 -0.6022 -0.9442
10993SOL     OW37444   1.148   4.586   3.961  0.2413  0.1888 -0.0526
10993SOL    HW137445   1.165   4.550   4.053  0.4917 -1.6667 -0.7894
10993SOL    HW237446   1.196   4.673   3.949 -0.7924  1.0596  1.9702
10994SOL     OW37447   1.968   8.165   3.074 -0.3598 -0.1397  0.1419
10994SOL    HW137448   2.028   8.228   3.123 -1.2587  1.7021 -1.0408
10994SOL    HW237449   2.017   8.081   3.053  1.3516  0.7632  0.4238
10995SOL     OW37450   6.117   9.804   1.543 -0.5592 -0.4505  0.4377
10995SOL    HW137451   6.075   9.746   1.474  0.0425 -1.4398  0.8902
10995SOL    HW237452   6.160   9.747   1.614  0.8498  0.5235  0.4081
10996SOL     OW37453   0.466   0.769   2.826  0.0242  0.7042  0.7773
10996SOL    HW137454   0.465   0.779   2.926  0.1047 -0.7179  0.9350
10996SOL    HW237455   0.560   0.758   2.794  0.0375  1.5958  0.4830
10997SOL     OW37456   1.409   1.597   3.362 -0.1504  0.1373 -0.0509
10997SOL    HW137457   1.443   1.506   3.338 -0.2144  0.4834 -1.5134
10997SOL    HW237458   1.315   1.607   3.331 -0.5331  0.2967  1.1461
10998SOL     OW37459   6.910   1.096   0.330 -0.7947 -0.1514  0.1699
10998SOL    HW137460   6.825   1.044   0.337 -1.5722  1.1601  0.6788
10998SOL    HW237461   6.957   1.072   0.245 -1.5285 -1.0940  0.0293
11000SOL     OW37462   1.744   8.463   2.858 -0.1118 -0.1331  0.1043
11000SOL    HW137463   1.711   8.386   2.804 -1.0059 -0.8026  1.5828
11000SOL    HW237464   1.837   8.445   2.890 -0.5624 -0.8898  0.9985
11002SOL     OW37465   7.889   9.442   3.998  0.4944  0.4360 -1.1589
11002SOL    HW137466   7.860   9.348   4.014  2.9446 -0.4280 -1.5051
11002SOL    HW237467   7.908   9.455   3.900  0.6211  1.1518 -1.0401
11003SOL     OW37468   1.348   5.011   0.567 -0.1715 -1.0219  0.8303
11003SOL    HW137469   1.294   4.962   0.635 -0.3157  1.5680  2.6748
11003SOL    HW237470   1.430   5.048   0.610  1.9544 -2.9195 -1.4064
11004SOL     OW37471   4.137   0.557   2.666  0.0368 -0.2871  0.6098
11004SOL    HW137472   4.142   0.514   2.757 -0.2328 -1.7081 -0.0349
11004SOL    HW237473   4.041   0.570   2.641  0.0575 -2.1385 -0.4963
11005SOL     OW37474   8.055   2.229   0.301 -0.2129 -0.1845 -0.3590
11005SOL    HW137475   8.064   2.177   0.386  1.1555  0.6799  0.0417
11005SOL    HW237476   8.144   2.268   0.276 -0.4526 -0.9699 -2.5367
11006SOL     OW37477   1.853   2.769   3.392  0.3114 -0.3452 -0.2199
11006SOL    HW137478   1.887   2.847   3.445  0.1591 -0.5726  0.2148
11006SOL    HW237479   1.756   2.781   3.373 -0.4239 -1.7668  2.3082
11007SOL     OW37480   2.067   0.143   3.094 -0.0768  0.4623  0.5438
11007SOL    HW137481   2.082   0.230   3.143  0.0793 -0.0271  1.3737
11007SOL    HW237482   2.141   0.130   3.027 -0.7696  1.5604 -0.4600
11008SOL     OW37483   3.559   9.110   3.643 -0.6671  0.0946 -0.3085
11008SOL    HW137484   3.492   9.115   3.569 -1.2181  2.0294  0.2871
11008SOL    HW237485   3.645   9.074   3.608 -1.9761 -2.3614 -1.0909
11009SOL     OW37486   9.786   4.334   2.898  0.0229  0.6903  0.4362
11009SOL    HW137487   9.866   4.303   2.948 -0.3963 -0.4012  0.4528
11009SOL    HW237488   9.804   4.422   2.856  1.3262  0.3105  0.2026
11010SOL     OW37489   9.464   3.109   0.205 -0.4684 -0.2873 -0.2001
11010SOL    HW137490   9.552   3.156   0.194 -0.8083  0.6258  0.9582
11010SOL    HW237491   9.414   3.148   0.282 -1.8550 -0.8768 -0.7825
11011SOL     OW37492   8.376   8.036   1.845 -0.4476  0.0968  0.0988
11011SOL    HW137493   8.448   8.080   1.791 -0.5158  0.0569 -0.0238
11011SOL    HW237494   8.332   8.104   1.903 -1.3379  0.4251 -0.9456
11012SOL     OW37495   8.316   0.795   0.891  0.1973  0.2270 -0.4084
11012SOL    HW137496   8.349   0.813   0.798 -0.3466  0.9087 -0.4705
11012SOL    HW237497   8.297   0.882   0.936 -1.4012 -0.1614 -0.3284
11013SOL     OW37498   3.276   5.945   2.643  0.1113 -0.1754 -0.5502
11013SOL    HW137499   3.247   6.041   2.651  1.5100  0.1284  1.2937
11013SOL    HW237500   3.340   5.936   2.567  0.0980  0.3774 -0.6294
11014SOL     OW37501   7.698   1.241   3.283  0.0454 -0.1151  0.2093
11014SOL    HW137502   7.702   1.268   3.187  1.8397 -0.0305  0.2868
11014SOL    HW237503   7.702   1.323   3.341  3.0394 -0.3699  0.4045
11016SOL     OW37504   0.512   4.265   4.428  0.8402 -0.0901  0.2864
11016SOL    HW137505   0.572   4.192   4.394  0.3880 -0.7550  0.9102
11016SOL    HW237506   0.443   4.285   4.358  0.5195 -0.7694  0.3985
11017SOL     OW37507   4.557   1.551   1.953  0.3064  0.5890  0.1943
11017SOL    HW137508   4.525   1.566   1.859  2.3776 -0.1863 -0.6813
11017SOL    HW237509   4.506   1.475   1.994 -1.2950  1.5742  0.0718
11018SOL     OW37510   5.818   7.497   2.236  0.2159  0.6714 -0.5116
11018SOL    HW137511   5.843   7.541   2.150  1.8392  0.4555 -0.1712
11018SOL    HW237512   5.872   7.537   2.310 -1.3104  0.9977  0.4496
11019SOL     OW37513   7.151   8.245   4.139 -0.2398  0.0348  0.1902
11019SOL    HW137514   7.104   8.300   4.069  0.2562 -0.3592 -0.4512
11019SOL    HW237515   7.103   8.158   4.151 -0.4075  0.1593  0.4502
11020SOL     OW37516   9.864   8.331   3.026  1.1208 -0.2226 -0.6567
11020SOL    HW137517   9.846   8.408   2.966 -0.0946 -0.4226 -0.5547
11020SOL    HW237518   9.902   8.255   2.972 -1.4573 -0.9652 -1.4672
11022SOL     OW37519   5.923   8.431   2.548 -0.5278  0.1570  0.7272
11022SOL    HW137520   5.965   8.516   2.582 -0.5240  0.3369  0.2771
11022SOL    HW237521   5.848   8.454   2.486  1.1516 -0.1762 -1.4856
11023SOL     OW37522   2.116   6.178   3.995 -0.5429 -0.2945 -0.0716
11023SOL    HW137523   2.157   6.269   3.999 -0.8160 -0.0797 -1.6186
11023SOL    HW237524   2.016   6.187   3.998 -0.5715 -0.5366 -0.2560
11025SOL     OW37525   9.681   8.888   1.194  0.0433  0.0989  0.0697
11025SOL    HW137526   9.714   8.961   1.134  0.6713 -0.1622  0.0951
11025SOL    HW237527   9.619   8.926   1.263 -1.3633  0.2866 -1.2584
11026SOL     OW37528   7.812   1.942   3.728  0.7122 -0.0228  0.3520
11026SOL    HW137529   7.861   2.003   3.665  0.2895 -0.8771 -0.8263
11026SOL    HW237530   7.746   1.996   3.781  0.0006  0.4799 -1.0249
11027SOL     OW37531   4.574   0.375   3.593  0.0933  0.1114 -0.6754
11027SOL    HW137532   4.626   0.395   3.676 -0.6799 -0.2988 -0.0880
11027SOL    HW237533   4.584   0.278   3.570 -0.5998 -0.0279 -0.4164
11028SOL     OW37534   3.488   4.594   0.991  0.9398 -0.0209 -0.9178
11028SOL    HW137535   3.507   4.690   0.967  0.4673 -0.1774 -1.9633
11028SOL    HW237536   3.568   4.538   0.971  0.5609 -0.1435 -2.1262
11029SOL     OW37537   9.223   0.205   0.455 -0.5730 -0.0907 -0.0752
11029SOL    HW137538   9.150   0.139   0.471 -0.8980  0.3239  0.1273
11029SOL    HW237539   9.216   0.280   0.520 -0.0346  0.0061 -0.1283
11030SOL     OW37540   9.266   6.586   1.879  0.2458 -0.6570  0.2162
11030SOL    HW137541   9.255   6.641   1.962  1.5864  0.5103 -0.3499
11030SOL    HW237542   9.360   6.551   1.875  0.3559 -0.2410 -1.0712
11031SOL     OW37543   8.211   9.854   1.571 -0.0551 -0.0465 -0.1546
11031SOL    HW137544   8.282   9.858   1.640  0.5286 -0.1375 -0.7438
11031SOL    HW237545   8.122   9.870   1.613  0.1999 -1.0432  0.7609
11032SOL     OW37546   9.389   4.511   3.809 -0.5559  0.6005 -0.0650
11032SOL    HW137547   9.299   4.551   3.789 -0.3434  1.0547 -0.1097
11032SOL    HW237548   9.422   4.547   3.896 -0.1042  0.9657 -0.3862
11033SOL     OW37549   0.359   4.817   2.670 -0.1022 -0.1851 -0.1609
11033SOL    HW137550   0.335   4.746   2.737  2.3242  0.1624  1.1204
11033SOL    HW237551   0.282   4.881   2.662 -0.9900 -1.0268  1.2297
11034SOL     OW37552   5.350   9.105   1.852 -0.3065  0.5641 -0.2484
11034SOL    HW137553   5.356   9.148   1.762 -0.3038  1.2887  0.0956
11034SOL    HW237554   5.404   9.020   1.852 -0.0335  0.7359 -0.8274
11036SOL     OW37555   9.070   4.888   1.641 -0.5892  0.0237 -0.5423
11036SOL    HW137556   9.150   4.830   1.624 -1.2814 -0.9548 -0.4794
11036SOL    HW237557   9.089   4.949   1.718 -0.4416 -1.2383  0.4293
11037SOL     OW37558   2.979   8.957   2.590  0.0343  0.7439  0.4901
11037SOL    HW137559   2.964   8.976   2.687 -0.6649  0.2895  0.4744
11037SOL    HW237560   3.064   8.905   2.580 -0.1810  0.2997  0.9163
11038SOL     OW37561   8.275   2.187   3.034  0.2396  0.3052 -0.3232
11038SOL    HW137562   8.373   2.198   3.022  0.1677  1.1884 -0.1179
11038SOL    HW237563   8.238   2.264   3.087 -0.7045  0.4549 -1.1763
11039SOL     OW37564   5.880   0.348   3.765 -0.1169 -0.5040  0.4915
11039SOL    HW137565   5.809   0.406   3.803  0.7560 -0.3781  1.9354
11039SOL    HW237566   5.955   0.404   3.730  0.8583 -0.7457  2.1471
11040SOL     OW37567   0.950   6.403   1.588 -0.2603  0.0999 -0.1162
11040SOL    HW137568   0.962   6.327   1.653  0.2864  1.5370  1.5041
11040SOL    HW237569   0.885   6.376   1.517 -0.1335 -1.8542  0.4744
11041SOL     OW37570   2.717   4.284   0.132 -0.6642 -0.3768 -0.0862
11041SOL    HW137571   2.733   4.327   0.221 -1.7109  0.3469 -0.2431
11041SOL    HW237572   2.679   4.193   0.145  2.7914 -1.8526  0.2827
11042SOL     OW37573   0.161   0.450   4.342 -0.3737  0.0354 -0.5290
11042SOL    HW137574   0.258   0.476   4.336  0.1737 -1.7107  0.2425
11042SOL    HW237575   0.111   0.521   4.392  0.6420  0.6505 -0.3616
11043SOL     OW37576   8.060   9.983   4.143  0.3240 -0.1730  0.0291
11043SOL    HW137577   8.098   9.899   4.180 -0.6177 -0.6520 -0.0987
11043SOL    HW237578   8.130  10.030   4.089  0.9875 -0.6271  0.4894
11044SOL     OW37579   8.991   8.927   3.257 -0.0552 -0.8383  0.1970
11044SOL    HW137580   8.966   8.975   3.341  0.3609 -0.6289  0.1996
11044SOL    HW237581   8.953   8.834   3.260 -0.5405 -0.6362  0.3544
11045SOL     OW37582   3.499   9.011   2.177  0.3769  0.3239  0.1040
11045SOL    HW137583   3.581   8.996   2.122  0.0650  0.1961 -0.3269
11045SOL    HW237584   3.490   8.939   2.246  0.8012  0.5215  0.3664
11046SOL     OW37585   1.647   4.127   2.481  0.0519  0.6319  0.1477
11046SOL    HW137586   1.742   4.146   2.456  0.4941 -1.1336  0.4148
11046SOL    HW237587   1.619   4.039   2.443 -0.9985  0.4419  1.3126
11047SOL     OW37588   4.489   1.893   0.320  0.6458  0.0092 -0.0989
11047SOL    HW137589   4.419   1.879   0.391  0.6062 -0.4864 -0.2330
11047SOL    HW237590   4.580   1.890   0.362  0.5323  2.3375  0.3413
11050SOL     OW37591   3.044   7.206   0.102 -0.7320  0.1542  0.0638
11050SOL    HW137592   3.054   7.289   0.047  0.2815 -0.4320 -0.6604
11050SOL    HW237593   2.951   7.170   0.091 -1.1232  1.1028  0.2580
11051SOL     OW37594   3.773   3.789   2.875  0.0175 -0.4044 -0.0518
11051SOL    HW137595   3.861   3.778   2.830 -0.8101  1.9088 -2.3236
11051SOL    HW237596   3.717   3.708   2.858  1.3492 -1.5025  0.6658
11052SOL     OW37597   8.966   6.268   2.227 -0.1029 -0.4490  0.0156
11052SOL    HW137598   8.920   6.231   2.146 -0.7896  3.5470 -1.5497
11052SOL    HW237599   8.900   6.315   2.285  0.8642 -0.9224  1.5376
11053SOL     OW37600   4.596   3.525   2.051  0.2671  0.1244  0.5045
11053SOL    HW137601   4.605   3.443   2.106 -0.1549 -0.3879 -0.1912
11053SOL    HW237602   4.682   3.542   2.003  0.1245 -0.2974  0.1040
11054SOL     OW37603   1.327   7.920   3.071  0.1604 -0.5312  0.5687
11054SOL    HW137604   1.355   8.015   3.059 -3.0384  0.5479  1.1170
11054SOL    HW237605   1.293   7.883   2.985  0.7427 -0.9547  0.5167
11055SOL     OW37606   1.768   8.384   1.381  1.0023 -0.3844  0.5823
11055SOL    HW137607   1.809   8.321   1.314  1.6646 -1.8849  2.3443
11055SOL    HW237608   1.828   8.390   1.461  0.1807  1.3235  1.0812
11056SOL     OW37609   3.123   7.530   2.350  0.0869 -0.1581  0.1556
11056SOL    HW137610   3.139   7.542   2.252 -1.7834 -0.1908 -0.1746
11056SOL    HW237611   3.025   7.537   2.369  0.3236 -1.1350  1.8831
11057SOL     OW37612   2.478   9.270   3.679 -0.1802  0.0014 -0.2588
11057SOL    HW137613   2.478   9.284   3.580 -0.4590  0.5292 -0.1829
11057SOL    HW237614   2.451   9.176   3.699 -1.5415  0.3141 -0.6240
11059SOL     OW37615   0.150   6.280   2.235  0.1257 -0.2463 -0.0299
11059SOL    HW137616   0.164   6.343   2.311  0.6452  1.0709 -1.1916
11059SOL    HW237617   0.082   6.211   2.261  3.2061 -2.3213  3.0840
11060SOL     OW37618   8.790   9.683   1.153 -0.0358  0.2017 -0.4670
11060SOL    HW137619   8.776   9.776   1.187  1.2749  0.7964 -1.4876
11060SOL    HW237620   8.714   9.659   1.091 -0.4068  0.5707 -0.1594
11061SOL     OW37621   9.126   5.684   3.138 -0.6100 -0.4206  0.0728
11061SOL    HW137622   9.115   5.713   3.043  0.2890 -0.2396  0.0198
11061SOL    HW237623   9.195   5.742   3.183 -0.3169 -1.1326  0.5504
11063SOL     OW37624   9.223   9.361   0.082 -0.0980 -0.4683  0.0406
11063SOL    HW137625   9.188   9.390  -0.007 -0.4234 -1.2396 -0.0901
11063SOL    HW237626   9.255   9.440   0.133  1.5696 -0.1812 -1.3933
11064SOL     OW37627   8.764   8.964   3.678  1.0959  0.0856 -0.4430
11064SOL    HW137628   8.771   8.865   3.682 -1.6024 -0.1446  0.0465
11064SOL    HW237629   8.815   9.004   3.754 -0.6370 -1.1583  1.4516
11068SOL     OW37630   2.482   3.719   0.301  0.0431 -0.3008 -0.2764
11068SOL    HW137631   2.497   3.813   0.333 -1.5064  0.1616 -0.8816
11068SOL    HW237632   2.568   3.683   0.264  0.1645  1.6723 -2.0395
11069SOL     OW37633   2.702   8.517   2.998  0.1248  0.2176  0.7688
11069SOL    HW137634   2.754   8.568   2.930  0.5955  1.0950  1.7612
11069SOL    HW237635   2.680   8.426   2.963 -0.8984  1.1605 -1.1015
11070SOL     OW37636   9.920   5.250   3.732  0.0586  0.2549  0.4697
11070SOL    HW137637   9.824   5.263   3.755 -0.5767 -0.8606 -1.4191
11070SOL    HW237638   9.941   5.298   3.647  0.8876 -0.3611  0.3133
11071SOL     OW37639   8.822   9.228   3.028  0.0628 -0.4820 -0.5855
11071SOL    HW137640   8.768   9.174   3.093 -0.7191 -0.0100 -0.8296
11071SOL    HW237641   8.826   9.323   3.057 -1.1149 -0.0703 -1.7145
11072SOL     OW37642   6.915   8.576   1.275  0.0292 -0.0218  1.3350
11072SOL    HW137643   7.009   8.610   1.279  0.9110 -2.2847  1.0997
11072SOL    HW237644   6.853   8.641   1.319  2.0730  0.3473  3.7886
11073SOL     OW37645   3.410   1.227   3.992 -0.0454 -0.2976 -0.5832
11073SOL    HW137646   3.318   1.191   4.004  0.5615 -1.3574  1.1668
11073SOL    HW237647   3.465   1.206   4.073  0.4513  4.2841  0.4433
11074SOL     OW37648   0.101   3.499   0.557 -0.0908  0.6324  0.6359
11074SOL    HW137649   0.189   3.458   0.533 -0.6678  0.3580 -1.0546
11074SOL    HW237650   0.104   3.597   0.541 -0.7457  0.3393 -1.4994
11075SOL     OW37651   9.844   3.613   0.676  0.1909 -0.8014  0.5145
11075SOL    HW137652   9.923   3.606   0.615  1.7361  0.4458  2.3159
11075SOL    HW237653   9.827   3.524   0.719  0.8170 -1.0001  0.3528
11076SOL     OW37654   2.281   0.076   1.182 -0.6507 -0.2797 -0.3595
11076SOL    HW137655   2.363   0.092   1.128  0.2138  2.1143  1.5408
11076SOL    HW237656   2.212   0.028   1.127  1.1999 -0.3681 -2.6352
11077SOL     OW37657   9.072   8.694   4.410  0.8540  0.3115  0.3870
11077SOL    HW137658   9.014   8.749   4.349 -0.2046 -1.3816 -0.1538
11077SOL    HW237659   9.090   8.746   4.493 -4.5645 -0.4345  2.2353
11079SOL     OW37660   2.208   9.000   3.487  0.0784  0.0369 -0.0660
11079SOL    HW137661   2.147   9.080   3.483  0.9506  0.6938 -0.4628
11079SOL    HW237662   2.279   9.010   3.417  0.5192 -0.8212  0.2645
11080SOL     OW37663   6.566   9.968   3.834 -0.1242  0.4897  0.3177
11080SOL    HW137664   6.519  10.052   3.862 -2.1023 -0.9777  1.5377
11080SOL    HW237665   6.553   9.898   3.903  2.2796 -0.5838 -0.2565
11081SOL     OW37666   5.189   0.456   0.080 -0.4267  0.0487  0.1387
11081SOL    HW137667   5.211   0.397   0.158 -1.1548 -0.4922 -0.0593
11081SOL    HW237668   5.271   0.468   0.023 -0.0790 -0.1399  0.5942
11082SOL     OW37669   5.174   6.900   3.608 -0.7070 -0.2115 -0.1019
11082SOL    HW137670   5.266   6.912   3.569 -1.5237  1.1431 -1.6511
11082SOL    HW237671   5.143   6.987   3.646 -1.3740 -0.6542  0.3595
11083SOL     OW37672   3.716   8.778   2.723  0.1046  0.0211 -0.5219
11083SOL    HW137673   3.728   8.691   2.772  0.8218 -0.6479 -1.8391
11083SOL    HW237674   3.789   8.787   2.654  0.8068  2.2872  0.4812
11084SOL     OW37675   9.817   1.522   0.831  0.2277  0.1009 -0.1880
11084SOL    HW137676   9.755   1.565   0.897  0.1570  2.0570 -1.4978
11084SOL    HW237677   9.912   1.534   0.862  0.2670  2.0774 -1.0294
11085SOL     OW37678   7.234   7.489   3.270  0.4043 -0.1301  0.1240
11085SOL    HW137679   7.142   7.474   3.233  0.8343 -0.3172 -0.8919
11085SOL    HW237680   7.252   7.587   3.277 -0.4858 -0.0844  1.8813
11086SOL     OW37681   8.957   3.423   1.999 -0.0442  0.0028  0.1093
11086SOL    HW137682   8.876   3.469   1.961 -0.2975 -0.9408 -0.5302
11086SOL    HW237683   8.936   3.326   2.012  1.3564 -0.4951 -1.2018
11088SOL     OW37684   4.867   0.291   2.631  0.3426  0.1260  0.0662
11088SOL    HW137685   4.826   0.285   2.540  1.2710  0.4613 -0.3784
11088SOL    HW237686   4.805   0.342   2.691 -0.4280 -0.3846 -0.2820
11089SOL     OW37687   2.935   5.952   0.981 -0.8703 -0.3009 -0.0658
11089SOL    HW137688   2.852   5.929   1.032  0.5355 -0.0286  2.4252
11089SOL    HW237689   2.970   6.041   1.011 -0.2469  0.0873 -1.8511
11090SOL     OW37690   1.936   0.548   3.503  0.3258  0.2996  0.3343
11090SOL    HW137691   2.017   0.600   3.474  0.7823 -0.3368  0.4427
11090SOL    HW237692   1.959   0.492   3.583 -0.4116  0.6188  0.7764
11091SOL     OW37693   4.062   0.155   2.947  0.1145 -0.2407 -0.3084
11091SOL    HW137694   4.155   0.123   2.962 -0.3141 -0.2980  2.5635
11091SOL    HW237695   4.063   0.255   2.939  0.3014 -0.1317  0.9577
11092SOL     OW37696   1.240   4.919   1.512 -0.5015  0.0213 -0.1030
11092SOL    HW137697   1.293   4.956   1.588 -0.1365  2.6566 -1.5868
11092SOL    HW237698   1.145   4.950   1.519 -0.1146  1.6097 -1.5452
11093SOL     OW37699   3.243   2.672   1.112  0.7383 -0.2426  0.4149
11093SOL    HW137700   3.156   2.623   1.100  1.0117 -0.7453  0.4754
11093SOL    HW237701   3.316   2.606   1.132  1.3003  0.1016 -0.5049
11094SOL     OW37702   8.116   6.761   2.236 -0.6165  0.3510 -0.0502
11094SOL    HW137703   8.154   6.847   2.203 -1.4589  0.9480  0.4895
11094SOL    HW237704   8.171   6.685   2.203  0.7905  1.1610  0.3901
11095SOL     OW37705   3.338   8.331   1.352  0.4494 -0.1003 -0.0651
11095SOL    HW137706   3.254   8.366   1.311  0.4191  0.8206  0.7440
11095SOL    HW237707   3.330   8.233   1.366 -0.3827 -0.0648 -0.2492
11096SOL     OW37708   4.908   0.185   4.441 -0.4433  0.3329 -0.2158
11096SOL    HW137709   4.902   0.102   4.495 -0.3436  1.6917  1.9477
11096SOL    HW237710   4.877   0.167   4.347 -0.6317 -2.0537  0.2904
11097SOL     OW37711   4.023   8.538   3.454  0.4714  0.0858 -0.1594
11097SOL    HW137712   4.034   8.442   3.480  1.1903  0.5306  1.2348
11097SOL    HW237713   3.931   8.569   3.480  0.3233 -0.1647 -0.3875
11098SOL     OW37714   1.388   0.098   0.024  0.1262 -0.7846  0.1297
11098SOL    HW137715   1.423   0.182  -0.017  1.9759 -2.3440 -1.5885
11098SOL    HW237716   1.447   0.070   0.100  0.7802 -1.6776 -0.6947
11099SOL     OW37717   6.418   9.197   1.657 -0.6796 -0.0617 -0.1105
11099SOL    HW137718   6.440   9.227   1.564  0.4563 -0.8731 -0.1059
11099SOL    HW237719   6.442   9.269   1.722 -0.4066  0.0532 -0.3398
11100SOL     OW37720   0.185   9.182   2.379 -0.2254  0.0121  0.2629
11100SOL    HW137721   0.133   9.122   2.440  0.0600 -2.4542 -1.8496
11100SOL    HW237722   0.133   9.197   2.295  0.8065  0.6996 -0.2602
11102SOL     OW37723   2.957   6.417   3.708  0.0380 -0.1298 -0.6650
11102SOL    HW137724   3.019   6.407   3.787 -1.6715 -0.0173  0.7254
11102SOL    HW237725   2.999   6.478   3.641  0.8028  1.1633  0.9440
11103SOL     OW37726   1.869   4.521   0.248 -0.5854 -0.2113  0.2943
11103SOL    HW137727   1.943   4.543   0.311  0.9924 -3.3124 -0.4210
11103SOL    HW237728   1.782   4.549   0.289  0.4566 -1.4651  3.5664
11104SOL     OW37729   2.828   8.319   2.390  0.1933 -0.2478  0.5976
11104SOL    HW137730   2.794   8.347   2.480 -0.4918 -0.2967  0.3578
11104SOL    HW237731   2.924   8.344   2.381  0.0458  0.4821  1.0346
11105SOL     OW37732   0.829   8.318   2.570  0.8471  0.2404 -0.6458
11105SOL    HW137733   0.835   8.415   2.595 -0.9354  0.1379  0.3105
11105SOL    HW237734   0.754   8.305   2.505  0.3962 -0.6431  0.0358
11106SOL     OW37735   0.604   1.332   2.713  0.3865  0.0069  0.0245
11106SOL    HW137736   0.675   1.299   2.651  1.5782  0.5105  1.0885
11106SOL    HW237737   0.539   1.259   2.732 -0.6660  0.1830 -2.7312
11109SOL     OW37738   2.833   1.826   2.949 -0.7586 -0.9839  0.4200
11109SOL    HW137739   2.755   1.853   2.893  0.6109  1.0040 -0.6075
11109SOL    HW237740   2.872   1.741   2.912  0.3987  0.5339 -2.0274
11110SOL     OW37741   1.389   2.227   0.257  0.1350  0.5278  0.1578
11110SOL    HW137742   1.367   2.253   0.163  0.7351  2.6299  0.5775
11110SOL    HW237743   1.448   2.146   0.257  0.5090  0.7969 -1.2962
11111SOL     OW37744   3.400   3.749   2.042 -0.3631  0.1041  0.3027
11111SOL    HW137745   3.399   3.667   1.985  0.5638 -0.1648  0.6611
11111SOL    HW237746   3.349   3.821   1.996  2.2066  0.6005 -1.9414
11112SOL     OW37747   2.204   8.061   2.015 -0.2190  0.6747  0.5903
11112SOL    HW137748   2.157   8.008   1.944 -0.3624 -0.3513  1.4536
11112SOL    HW237749   2.224   8.003   2.093  0.6988  1.6004  1.0631
11113SOL     OW37750   2.987   7.148   2.182 -0.4777  0.1030  0.7321
11113SOL    HW137751   2.928   7.219   2.219 -1.1374 -0.2068  0.2996
11113SOL    HW237752   2.936   7.095   2.114  0.5302  0.3088 -0.1975
11114SOL     OW37753   4.997   1.337   3.806  0.2702 -0.3630 -0.2293
11114SOL    HW137754   5.003   1.394   3.888  1.2523 -0.2510 -0.3693
11114SOL    HW237755   4.970   1.244   3.832  0.5432 -0.3183  0.2161
11115SOL     OW37756   5.702   0.420   4.130  0.4876  0.1429  0.2763
11115SOL    HW137757   5.690   0.486   4.056  0.3599 -1.2710 -0.9926
11115SOL    HW237758   5.795   0.428   4.166  0.9417  0.0432 -0.8423
11116SOL     OW37759   8.894   2.119   3.724  0.6193 -0.3974 -0.1586
11116SOL    HW137760   8.943   2.181   3.663  1.3799 -0.7749  0.0582
11116SOL    HW237761   8.900   2.025   3.689  2.0234 -0.7898  1.0575
11118SOL     OW37762   4.478   1.366   3.539  0.4500 -0.1793  0.4475
11118SOL    HW137763   4.510   1.428   3.611 -0.2213  1.5521 -0.6955
11118SOL    HW237764   4.555   1.340   3.480  0.4871  0.8040  0.0445
11119SOL     OW37765   4.793   9.610   1.889 -0.3147 -0.2975 -0.1074
11119SOL    HW137766   4.789   9.566   1.979  0.1825  0.4697  0.2857
11119SOL    HW237767   4.702   9.643   1.864  0.2631  2.9570  1.8444
11121SOL     OW37768   0.541   7.454   0.129 -0.3465 -0.2293  0.1263
11121SOL    HW137769   0.590   7.385   0.076 -1.8775 -1.0760 -0.1992
11121SOL    HW237770   0.606   7.504   0.186  1.1676 -0.0842 -1.6627
11122SOL     OW37771   4.926   4.145   2.031  0.8995  0.5968 -0.1227
11122SOL    HW137772   4.854   4.165   1.964  0.5306  0.2181  0.1584
11122SOL    HW237773   5.007   4.199   2.010  0.4420  1.2212 -0.2891
11123SOL     OW37774   2.626   2.741   0.378 -0.2870  1.0356 -0.9353
11123SOL    HW137775   2.600   2.645   0.365  1.9563  0.4007 -1.0979
11123SOL    HW237776   2.724   2.746   0.400 -0.4081  3.2859 -0.7732
11124SOL     OW37777   9.018   5.888   0.988  0.0403  0.0886  0.0316
11124SOL    HW137778   9.094   5.823   0.987  1.4248  1.6593 -1.2964
11124SOL    HW237779   9.050   5.975   1.026 -1.6353  0.1867  1.2774
11125SOL     OW37780   1.986  10.002   0.682  0.5199  1.0729 -0.0892
11125SOL    HW137781   1.899  10.034   0.644  1.1817  1.4652 -1.3207
11125SOL    HW237782   1.973   9.911   0.722  0.0260  0.1293 -2.2884
11126SOL     OW37783   3.375   5.931   2.884 -0.0402  0.1948 -0.3181
11126SOL    HW137784   3.364   6.019   2.932 -3.6139 -1.7926  2.7776
11126SOL    HW237785   3.333   5.937   2.794 -0.4371  1.5855 -0.0584
11128SOL     OW37786   1.664   7.336   0.934 -0.0057  0.3926 -0.0309
11128SOL    HW137787   1.709   7.418   0.970 -0.4572  0.5813  0.1110
11128SOL    HW237788   1.731   7.279   0.886  0.3442  0.7572  0.0229
11130SOL     OW37789   2.372   2.118   2.293  0.1043 -0.1927  0.6166
11130SOL    HW137790   2.396   2.169   2.211  2.6429  0.3956  1.6671
11130SOL    HW237791   2.298   2.054   2.273 -2.7058  3.3843 -0.9090
11131SOL     OW37792   0.456   4.534   1.885 -0.1496 -0.1436 -0.4929
11131SOL    HW137793   0.428   4.627   1.907  1.1977  0.0646  0.3794
11131SOL    HW237794   0.457   4.479   1.969 -0.3771 -0.7958 -0.9143
11132SOL     OW37795   7.952   6.554   1.850  0.3713  0.4242  0.3211
11132SOL    HW137796   7.975   6.484   1.917  1.3040 -0.3553 -0.7811
11132SOL    HW237797   7.873   6.606   1.881  0.5506 -0.1882  1.8237
11134SOL     OW37798   3.770   2.027   2.274  0.1523 -0.5803 -0.3504
11134SOL    HW137799   3.775   1.973   2.190 -0.2629 -0.1594 -0.6430
11134SOL    HW237800   3.675   2.037   2.302  0.2456 -0.2021 -0.1661
11136SOL     OW37801   1.005   8.879   0.225 -0.2165 -0.0125  0.5339
11136SOL    HW137802   0.906   8.866   0.235 -0.5141  1.3044 -0.3986
11136SOL    HW237803   1.038   8.821   0.150 -0.3081 -0.3515  0.7538
11137SOL     OW37804   3.038   4.237   3.271  0.4629  0.5902 -0.2455
11137SOL    HW137805   3.135   4.226   3.291  0.2643 -0.0176  0.4061
11137SOL    HW237806   3.014   4.185   3.189  0.9396  1.7485 -1.1362
11138SOL     OW37807   6.765   9.872   2.296  0.7800  0.2458 -0.2218
11138SOL    HW137808   6.775   9.898   2.200  1.4225 -0.8145 -0.4588
11138SOL    HW237809   6.854   9.876   2.341  0.7251 -0.5465 -0.0220
11139SOL     OW37810   2.618   6.859   0.642 -0.1941  0.2899  0.0260
11139SOL    HW137811   2.579   6.794   0.706  2.1429 -0.4632  0.7299
11139SOL    HW237812   2.647   6.941   0.692 -1.2732  1.0593 -0.5692
11140SOL     OW37813   9.838   5.734   1.911 -0.1884 -0.4381 -0.5592
11140SOL    HW137814   9.752   5.686   1.894 -0.2060  0.1827 -2.2862
11140SOL    HW237815   9.869   5.779   1.827  1.7603 -0.5334  0.0808
11141SOL     OW37816   5.653   9.454   1.211  0.4384  0.5130  0.1470
11141SOL    HW137817   5.604   9.539   1.194  1.7074  0.9156 -1.6343
11141SOL    HW237818   5.751   9.472   1.210  0.6774 -0.6107  1.8370
11142SOL     OW37819   4.397   2.336   2.634  0.3834 -0.5610  0.7995
11142SOL    HW137820   4.495   2.356   2.641  0.8261 -1.7108 -1.5337
11142SOL    HW237821   4.361   2.375   2.549 -0.7628 -1.7125  0.7383
11143SOL     OW37822   6.917   9.116   2.069 -0.4635  0.6712 -0.3646
11143SOL    HW137823   6.969   9.033   2.091  0.6625  1.7401  1.1779
11143SOL    HW237824   6.960   9.194   2.114 -3.4550  1.6002  0.9879
11144SOL     OW37825   6.103   6.836   1.985  0.6948 -0.2682  0.2115
11144SOL    HW137826   6.126   6.894   1.906 -0.1836  0.7189  0.6638
11144SOL    HW237827   6.036   6.768   1.957 -1.8713  1.9580  0.7639
11145SOL     OW37828   8.113   7.120   0.618  0.2702  0.0032 -0.1469
11145SOL    HW137829   8.126   7.217   0.601 -1.7527  0.1390 -0.9505
11145SOL    HW237830   8.146   7.068   0.539 -1.3001  0.1962 -0.9411
11146SOL     OW37831   9.429   7.330   0.688  0.1391 -0.3017 -0.3736
11146SOL    HW137832   9.471   7.255   0.738  0.7884  1.4860  1.8659
11146SOL    HW237833   9.471   7.339   0.598  2.7994 -0.1619  0.8430
11147SOL     OW37834   3.578   9.142   2.981  0.1156 -0.3894 -0.1818
11147SOL    HW137835   3.635   9.098   2.911 -0.0229  0.8398 -1.0854
11147SOL    HW237836   3.484   9.147   2.948 -0.5814 -2.5239  1.3590
11149SOL     OW37837   6.861   7.285   4.202  0.1693 -0.2741 -0.4329
11149SOL    HW137838   6.803   7.292   4.120 -2.1433  0.3369  1.2131
11149SOL    HW237839   6.880   7.376   4.237  1.1509 -0.5349 -0.2726
11151SOL     OW37840   2.377   7.869   0.007 -0.2433  1.0026 -0.7099
11151SOL    HW137841   2.419   7.862   0.097  1.1064 -2.5893 -1.5158
11151SOL    HW237842   2.278   7.856   0.015 -0.0165 -0.3283  0.1821
11153SOL     OW37843   7.067   1.288   0.435  0.5419 -0.0105 -0.3267
11153SOL    HW137844   6.987   1.236   0.405  1.5938 -2.3288  0.7988
11153SOL    HW237845   7.135   1.291   0.362  0.2466  0.2829 -0.5911
11154SOL     OW37846   2.920   4.041   0.202  0.4658 -0.6834 -0.0756
11154SOL    HW137847   2.951   4.047   0.297 -1.3195  0.1371  0.4746
11154SOL    HW237848   2.987   4.084   0.142  1.2789 -0.6111  0.8814
11156SOL     OW37849   3.104   3.954   0.417 -0.0977 -0.1083  0.6589
11156SOL    HW137850   3.168   4.029   0.400 -0.2912  0.6198  2.9393
11156SOL    HW237851   3.154   3.874   0.450 -0.1975 -0.0559  0.9372
11157SOL     OW37852   5.194   6.578   1.910 -0.1329 -0.2655 -0.0832
11157SOL    HW137853   5.254   6.657   1.900  2.1573 -1.8871  0.3963
11157SOL    HW237854   5.142   6.585   1.995 -1.0308  1.4107 -0.7580
11159SOL     OW37855   0.086   5.437   3.879  0.0142 -0.2507 -0.2202
11159SOL    HW137856   0.018   5.366   3.861  1.2806 -2.0365  1.7480
11159SOL    HW237857   0.178   5.402   3.859  0.5696  1.2843 -0.4584
11160SOL     OW37858   4.689   0.386   3.124  0.1605  0.1727 -0.2272
11160SOL    HW137859   4.687   0.485   3.116 -1.1801  0.2037  0.2620
11160SOL    HW237860   4.737   0.360   3.208  0.9794  0.3879 -0.6290
11161SOL     OW37861   8.086   7.608   4.303 -0.0706  0.3510 -0.1992
11161SOL    HW137862   8.015   7.539   4.316  0.5863  0.0314  1.8810
11161SOL    HW237863   8.170   7.565   4.271 -0.4311  0.5489 -1.4101
11162SOL     OW37864   9.595   6.249   2.892 -0.0925  0.0178 -1.1050
11162SOL    HW137865   9.553   6.168   2.853 -0.2919  0.3534 -1.5965
11162SOL    HW237866   9.566   6.330   2.840 -0.1212  0.4332 -0.4502
11163SOL     OW37867   4.091   3.549   1.319 -0.0350 -0.3376  0.2348
11163SOL    HW137868   4.145   3.533   1.237 -0.2100  0.7861 -0.1029
11163SOL    HW237869   4.151   3.575   1.394 -0.0107 -0.1156  0.1360
11165SOL     OW37870   3.456   7.304   0.092  0.7948 -0.4103  0.0118
11165SOL    HW137871   3.424   7.336   0.003  1.6334 -2.0184 -0.8721
11165SOL    HW237872   3.511   7.376   0.135 -0.3157  0.6928 -0.3640
11166SOL     OW37873   8.083   7.810   4.084 -0.1088  0.4038  0.1972
11166SOL    HW137874   8.097   7.764   4.172  2.0523 -0.0272 -0.3406
11166SOL    HW237875   8.031   7.894   4.098 -0.1254  0.1384  1.8207
11167SOL     OW37876   3.849   9.658   1.517  0.1691  0.3158 -0.3264
11167SOL    HW137877   3.771   9.719   1.500  0.4663  0.3359 -1.6986
11167SOL    HW237878   3.815   9.566   1.539 -0.2387  0.2437 -1.2363
11168SOL     OW37879   9.360   5.018   1.991  0.0438  0.1473  0.1924
11168SOL    HW137880   9.421   4.939   1.980  1.2661  0.7992  2.0174
11168SOL    HW237881   9.303   5.005   2.072  1.3334  1.7980  1.4038
11169SOL     OW37882   4.729   7.862   1.974 -0.7852  0.3567  0.1902
11169SOL    HW137883   4.789   7.860   2.055 -1.6135  0.2464  0.8098
11169SOL    HW237884   4.763   7.796   1.906  0.5929  1.2917 -0.0446
11170SOL     OW37885   4.392   0.447   1.323 -0.0343  0.0087 -0.2034
11170SOL    HW137886   4.461   0.445   1.251  0.3767  1.5324  0.1138
11170SOL    HW237887   4.416   0.380   1.394  0.5221 -0.2519 -0.6343
11171SOL     OW37888   8.846   1.305   0.938 -0.4930  0.0130  0.4192
11171SOL    HW137889   8.866   1.233   1.005  0.6472  0.6364  0.7785
11171SOL    HW237890   8.765   1.281   0.885 -0.4650 -1.2492  0.9382
11174SOL     OW37891   9.957   3.047   3.578  0.0665  0.4887  0.2492
11174SOL    HW137892   9.969   3.135   3.624 -1.5204  1.6293 -1.4571
11174SOL    HW237893  10.045   2.999   3.573  1.0250  2.1579  0.8004
11175SOL     OW37894   9.375   0.148   1.050 -0.3451 -0.0463  0.2810
11175SOL    HW137895   9.340   0.228   1.098 -1.5347 -0.3683 -0.0244
11175SOL    HW237896   9.380   0.168   0.952  2.1650  0.6447  0.5033
11176SOL     OW37897   4.402   7.988   1.902  0.2429 -0.3981 -0.0131
11176SOL    HW137898   4.378   7.962   1.996  0.0164  0.0929  0.0699
11176SOL    HW237899   4.485   8.044   1.904 -0.3700  0.5325  0.0090
11177SOL     OW37900   1.435   3.297   1.071  0.6502  0.4948  0.0019
11177SOL    HW137901   1.511   3.236   1.089  0.4898  0.4602  0.5707
11177SOL    HW237902   1.350   3.244   1.064  0.3928  0.7200  1.2613
11178SOL     OW37903   8.929   2.246   3.358  0.1871  0.0105 -0.3611
11178SOL    HW137904   8.856   2.308   3.330  0.1502 -0.6768 -1.8645
11178SOL    HW237905   8.928   2.165   3.298  1.0395 -0.8303  0.7483
11179SOL     OW37906   4.631   2.964   4.341  0.0645 -0.5837 -0.2509
11179SOL    HW137907   4.664   2.890   4.399  3.0244  0.1305 -0.9544
11179SOL    HW237908   4.605   2.927   4.251 -0.1669 -1.0077 -0.0119
11180SOL     OW37909   9.735   7.891   2.072 -0.0304  0.2470 -0.0143
11180SOL    HW137910   9.721   7.806   2.122 -0.9151  0.2577 -0.2427
11180SOL    HW237911   9.804   7.876   2.000  0.1229 -0.1602  0.2165
11183SOL     OW37912   7.141   8.146   3.120  0.4297  0.0033 -0.4370
11183SOL    HW137913   7.218   8.158   3.058  0.9962  2.4933  0.6464
11183SOL    HW237914   7.133   8.227   3.178 -3.2790 -0.0041 -0.8063
11184SOL     OW37915   8.798   6.487   0.637  0.0389  0.9239 -0.1910
11184SOL    HW137916   8.729   6.484   0.710 -1.6017  1.8740 -1.6552
11184SOL    HW237917   8.883   6.524   0.674 -0.1352 -0.4573  1.7071
11185SOL     OW37918   9.922   5.074   0.624  0.5857 -0.2036  0.0421
11185SOL    HW137919   9.934   5.057   0.526  0.7044  0.6113 -0.0883
11185SOL    HW237920   9.983   5.014   0.675 -0.4338 -1.5740 -0.3230
11186SOL     OW37921   2.518   2.737   0.006 -0.5029  0.4958 -0.4845
11186SOL    HW137922   2.566   2.824  -0.000 -0.7923  0.5522 -2.2859
11186SOL    HW237923   2.584   2.662   0.001 -0.3798  0.6050 -0.4903
11187SOL     OW37924   0.827   0.054   0.955  0.0734 -0.7864 -0.3506
11187SOL    HW137925   0.781   0.047   1.043 -1.2651  0.3110 -0.9345
11187SOL    HW237926   0.851  -0.037   0.923  0.2457 -1.2148  0.9817
11188SOL     OW37927   4.068   9.857   2.570 -0.5175 -0.0401 -0.4421
11188SOL    HW137928   4.116   9.787   2.518  1.9573  2.4818 -1.7083
11188SOL    HW237929   4.045   9.821   2.661  0.2851 -2.6025 -1.2136
11189SOL     OW37930   8.692   9.834   2.658  0.4402 -0.2067 -0.2766
11189SOL    HW137931   8.725   9.863   2.747  0.7456  2.9414 -1.3686
11189SOL    HW237932   8.598   9.801   2.666  0.7269 -0.6748  1.3086
11190SOL     OW37933   1.500   1.997   2.822 -0.2522  0.0095 -0.0201
11190SOL    HW137934   1.473   2.090   2.798 -1.8571 -0.7471 -1.2761
11190SOL    HW237935   1.424   1.935   2.803  0.7437 -1.5425  0.9559
11191SOL     OW37936   1.436   2.856   2.298 -0.4472 -0.8714 -0.3950
11191SOL    HW137937   1.514   2.794   2.298  0.2040 -0.0764  1.0016
11191SOL    HW237938   1.431   2.904   2.211  1.8865  0.6089  0.2350
11192SOL     OW37939   4.183   3.685   0.583  0.0513  0.5807  0.0916
11192SOL    HW137940   4.240   3.725   0.511 -1.5824  2.6000 -0.1403
11192SOL    HW237941   4.103   3.641   0.542 -0.2608  0.6712  0.5971
11193SOL     OW37942   7.900   9.151   2.244  0.2216 -0.0863 -0.0315
11193SOL    HW137943   7.809   9.183   2.218 -0.0206 -1.5372 -1.0298
11193SOL    HW237944   7.932   9.204   2.323 -2.4450 -1.0583  1.7937
11194SOL     OW37945   6.800   9.095   2.821 -0.3487 -0.0629  0.5866
11194SOL    HW137946   6.877   9.159   2.808  0.8839 -1.4996  0.6738
11194SOL    HW237947   6.804   9.058   2.914 -0.6626 -0.7677  0.3175
11195SOL     OW37948   4.597   9.312   1.853 -0.3382  0.1032 -0.2479
11195SOL    HW137949   4.540   9.345   1.777 -1.3370 -0.6364  0.1740
11195SOL    HW237950   4.559   9.346   1.939  0.1658  0.0317  0.0014
11196SOL     OW37951   8.068   6.644   0.573 -0.6759 -0.0166  0.5893
11196SOL    HW137952   8.145   6.588   0.603  0.0090 -1.3967 -3.5047
11196SOL    HW237953   8.084   6.739   0.600  1.8587 -0.4916  0.8694
11197SOL     OW37954   4.098   3.958   4.090 -0.2402  1.5615 -0.7804
11197SOL    HW137955   4.192   3.969   4.123  0.1776  1.2506 -1.8266
11197SOL    HW237956   4.068   3.864   4.108  0.3303  1.1085 -2.0918
11198SOL     OW37957   1.831   5.614   1.214 -0.1039  0.0649  0.9084
11198SOL    HW137958   1.864   5.686   1.153 -0.6103 -0.0643  0.4744
11198SOL    HW237959   1.746   5.577   1.177 -0.5396  0.1519  1.8283
11199SOL     OW37960   9.223   1.788   2.232 -0.0247 -0.1374 -0.3302
11199SOL    HW137961   9.176   1.801   2.320  1.0889 -1.1675  0.4239
11199SOL    HW237962   9.259   1.695   2.227  2.1691  0.7078 -0.7900
11200SOL     OW37963   3.949   4.915   2.285  0.2513 -0.4964 -0.2230
11200SOL    HW137964   4.004   4.837   2.313  0.0000 -1.0311 -1.1670
11200SOL    HW237965   4.008   4.994   2.270  0.4604 -0.3961  1.1068
11201SOL     OW37966   6.972   0.765   4.220 -0.2757  0.5380 -0.2391
11201SOL    HW137967   6.967   0.771   4.121  0.2464  0.4194 -0.2730
11201SOL    HW237968   6.885   0.796   4.260 -0.3403  0.9793 -0.7147
11202SOL     OW37969   4.186   9.936   1.457 -0.2684  0.1134 -0.3876
11202SOL    HW137970   4.252   9.884   1.511 -0.9001  0.2999  0.5737
11202SOL    HW237971   4.098   9.939   1.505 -0.5900  1.0134 -1.0144
11203SOL     OW37972   9.574   6.389   3.125 -0.2133  0.5381 -0.7366
11203SOL    HW137973   9.566   6.331   3.044 -0.6434 -1.2152  0.5439
11203SOL    HW237974   9.486   6.433   3.142 -0.2367  0.5929 -0.9883
11204SOL     OW37975   0.924   6.373   2.952  0.4813 -0.3792  0.3489
11204SOL    HW137976   0.842   6.372   2.896  0.3471 -2.1273  0.5387
11204SOL    HW237977   1.002   6.340   2.898  1.4353  2.8640 -0.3401
11205SOL     OW37978   2.016   3.114   1.101 -0.1216 -0.1975 -0.3480
11205SOL    HW137979   1.972   3.170   1.171  0.7960  1.9780 -1.4378
11205SOL    HW237980   1.974   3.132   1.012  0.7153 -0.6536 -0.8438
11206SOL     OW37981   1.864   3.248   0.850 -0.3589  0.2630  0.0880
11206SOL    HW137982   1.823   3.338   0.867 -0.3925  0.2322  0.1690
11206SOL    HW237983   1.791   3.181   0.835 -0.3355  0.2302  0.1221
11207SOL     OW37984   9.758   5.971   4.219  0.1493 -0.5862  0.1331
11207SOL    HW137985   9.697   5.969   4.298 -0.1309 -3.9926 -0.1299
11207SOL    HW237986   9.839   5.916   4.237  0.7127 -0.3112 -1.4735
11208SOL     OW37987   7.510   9.716   1.138 -0.0980 -0.0811 -0.1288
11208SOL    HW137988   7.607   9.741   1.144 -0.0656 -0.0660 -0.7317
11208SOL    HW237989   7.501   9.617   1.135 -0.2148 -0.1587  2.0022
11209SOL     OW37990   5.097   1.243   1.244  0.1166 -0.4052 -0.2717
11209SOL    HW137991   5.169   1.187   1.284  0.2951 -1.0892 -1.5257
11209SOL    HW237992   5.011   1.192   1.244  0.0568 -0.3040 -0.5107
11211SOL     OW37993   2.462   4.971   3.859  0.2182 -0.5967 -0.1315
11211SOL    HW137994   2.487   5.015   3.773  0.0681 -0.4841 -0.1193
11211SOL    HW237995   2.413   4.886   3.841 -0.7290 -0.0552 -0.1695
11212SOL     OW37996   1.194   6.327   1.831  0.5132 -0.7263 -0.3633
11212SOL    HW137997   1.232   6.290   1.916  1.9822  0.8303 -0.3070
11212SOL    HW237998   1.181   6.426   1.841 -1.6212 -0.8969 -1.1265
11213SOL     OW37999   4.429   3.089   2.337 -0.4419  0.2040  0.2004
11213SOL    HW138000   4.413   2.993   2.361 -1.0748 -0.3036 -2.1670
11213SOL    HW238001   4.457   3.096   2.241 -0.4203  2.3967  0.3336
11214SOL     OW38002   7.906   4.567   3.814  0.1511  0.0063  0.2174
11214SOL    HW138003   7.956   4.485   3.787  1.1408  0.9975 -1.0437
11214SOL    HW238004   7.967   4.646   3.808 -0.5019  0.7203  2.3732
11215SOL     OW38005   7.574   6.626   3.122 -0.4224  0.3028  0.3457
11215SOL    HW138006   7.536   6.610   3.213  0.2800 -2.0506  0.2565
11215SOL    HW238007   7.572   6.541   3.070 -0.3586  1.5124 -1.6814
11216SOL     OW38008   2.523   4.829   3.050  0.1947  0.4378 -0.1902
11216SOL    HW138009   2.495   4.756   2.988 -0.6324  0.0774  0.5858
11216SOL    HW238010   2.608   4.870   3.018 -0.2384  0.2726 -1.5581
11217SOL     OW38011   1.692   5.371   3.728  0.0627 -0.2197  0.0276
11217SOL    HW138012   1.747   5.376   3.645  0.5982  0.1936  0.4082
11217SOL    HW238013   1.749   5.393   3.807 -0.0822 -2.0634  0.6578
11218SOL     OW38014   9.480   3.068   4.055 -0.5929  0.4353 -0.1204
11218SOL    HW138015   9.437   3.154   4.028 -0.9426  0.1877 -0.3511
11218SOL    HW238016   9.510   3.074   4.151 -0.5766  0.8272 -0.1499
11219SOL     OW38017   0.145   2.027   3.382 -0.1169 -0.7549 -0.0129
11219SOL    HW138018   0.144   2.112   3.328  2.2392 -0.7139 -0.0156
11219SOL    HW238019   0.107   2.045   3.473 -0.4732  0.0872 -0.3223
11220SOL     OW38020   6.000   1.360   3.223  0.0194 -0.3941 -0.2075
11220SOL    HW138021   5.943   1.375   3.143 -1.1120 -0.4263  0.5814
11220SOL    HW238022   5.963   1.285   3.278  0.3424  0.1216  0.7350
11221SOL     OW38023   3.742   3.482   2.378 -0.5390 -0.1095  0.8635
11221SOL    HW138024   3.809   3.412   2.403  2.4391  2.2663 -0.2327
11221SOL    HW238025   3.745   3.557   2.444 -1.3802  0.5198  0.2142
11223SOL     OW38026   3.543   1.326   0.463  0.1861 -0.0881  0.1079
11223SOL    HW138027   3.561   1.424   0.473  0.6640 -0.2816  1.1898
11223SOL    HW238028   3.592   1.276   0.533 -1.6277 -0.9504  0.7944
11224SOL     OW38029   3.418   4.473   0.709  0.0020 -0.1866 -0.7111
11224SOL    HW138030   3.430   4.491   0.806 -3.7356 -0.7210 -0.0721
11224SOL    HW238031   3.388   4.557   0.663  1.0531 -0.1127 -1.2681
11225SOL     OW38032   9.711   2.369   1.542 -0.0113 -0.3150 -0.1002
11225SOL    HW138033   9.694   2.272   1.528  1.6387 -0.7831  0.8766
11225SOL    HW238034   9.691   2.420   1.459 -0.6182 -1.5326 -0.7028
11226SOL     OW38035   5.475   7.856   3.553 -0.6146 -0.1897 -0.1541
11226SOL    HW138036   5.521   7.768   3.538 -0.7114 -0.2111 -0.3231
11226SOL    HW238037   5.434   7.887   3.467 -0.5463  0.0408 -0.1038
11227SOL     OW38038   1.263   5.054   4.273  0.2477  0.1246  0.2467
11227SOL    HW138039   1.249   5.054   4.174  0.2298  1.5088  0.2403
11227SOL    HW238040   1.225   5.138   4.313  1.6773  0.3413  1.2051
11230SOL     OW38041   2.244   3.641   1.766  0.3227  0.2137 -0.3878
11230SOL    HW138042   2.167   3.639   1.830  2.5470 -0.1118  2.3660
11230SOL    HW238043   2.317   3.698   1.803  1.9497 -0.5511 -2.3107
11231SOL     OW38044   8.499   5.126   1.274 -0.2192  0.1113 -0.5587
11231SOL    HW138045   8.434   5.165   1.339  0.2988  0.1601 -0.0670
11231SOL    HW238046   8.582   5.182   1.272  0.3003 -0.6455 -0.2683
11232SOL     OW38047   8.639   6.060   3.721 -0.3145  0.1506  0.9580
11232SOL    HW138048   8.591   6.139   3.758 -0.0215  0.0162  1.6224
11232SOL    HW238049   8.573   5.994   3.685 -0.6654 -0.4346  2.6647
11235SOL     OW38050   2.361   1.997   2.771 -0.4555 -0.4186 -0.3991
11235SOL    HW138051   2.335   2.061   2.699 -0.0907 -2.1056 -2.0477
11235SOL    HW238052   2.321   1.908   2.753 -1.7780 -0.4457  2.4137
11236SOL     OW38053   1.369   8.131   2.716 -0.2124 -0.2398  0.5793
11236SOL    HW138054   1.376   8.044   2.668  0.9530 -0.2750  0.7817
11236SOL    HW238055   1.292   8.184   2.680 -0.0182 -0.7261 -0.5634
11237SOL     OW38056   0.765   2.843   3.397  0.6526 -0.1542  0.1779
11237SOL    HW138057   0.711   2.801   3.325 -0.7949  2.7209 -0.4896
11237SOL    HW238058   0.744   2.800   3.485 -2.4479  0.6189 -0.1310
11238SOL     OW38059   6.755   0.493   3.074 -0.3445  0.3145 -0.2179
11238SOL    HW138060   6.733   0.440   3.156 -1.4970 -0.4543 -0.9993
11238SOL    HW238061   6.853   0.486   3.055 -0.0699  0.5007  1.0825
11239SOL     OW38062   2.680   0.708   1.389  0.5009 -0.2647 -0.2370
11239SOL    HW138063   2.761   0.680   1.338  0.7214  0.3684 -0.2402
11239SOL    HW238064   2.698   0.702   1.487  0.4164 -0.5130 -0.2367
11240SOL     OW38065   0.673   9.504   4.380  0.0563  0.0261  0.3026
11240SOL    HW138066   0.631   9.480   4.468  0.8723  0.0421  0.7055
11240SOL    HW238067   0.692   9.602   4.379 -3.4241  0.7444 -1.4052
11241SOL     OW38068   8.999   4.760   2.101 -0.9632  0.2712 -0.0850
11241SOL    HW138069   9.088   4.755   2.147 -1.3170 -0.0366  0.5712
11241SOL    HW238070   8.926   4.752   2.169 -1.4962  1.2715 -0.5370
11242SOL     OW38071   1.415   8.886   3.168 -0.6531 -0.1646 -0.1596
11242SOL    HW138072   1.341   8.867   3.103 -0.2489 -0.4427 -0.5383
11242SOL    HW238073   1.396   8.973   3.215 -2.7509 -1.6938  1.9280
11243SOL     OW38074   2.122   5.051   1.977  0.4647 -0.1780 -0.5660
11243SOL    HW138075   2.165   4.999   2.051  0.9883  0.7112 -0.2311
11243SOL    HW238076   2.078   5.132   2.015 -0.8756 -0.6887 -1.0054
11244SOL     OW38077   8.699   6.686   2.678 -0.4748 -0.3355 -0.6279
11244SOL    HW138078   8.715   6.718   2.584  1.1877  1.5368  0.2504
11244SOL    HW238079   8.636   6.748   2.724  0.0400 -0.2803  0.0114
11245SOL     OW38080   7.799   1.666   2.625  0.0688  0.0276  0.0196
11245SOL    HW138081   7.883   1.627   2.586  0.8729  0.5876  1.1531
11245SOL    HW238082   7.765   1.606   2.697 -0.5763 -0.2386 -0.4908
11246SOL     OW38083   3.531   9.110   2.580  0.2727 -0.2657 -0.2515
11246SOL    HW138084   3.450   9.165   2.602  0.3170  0.1835 -1.1861
11246SOL    HW238085   3.588   9.161   2.516  1.6371 -0.2960  0.9238
11247SOL     OW38086   7.688   3.235   1.689 -0.5669 -0.4265  0.8246
11247SOL    HW138087   7.747   3.154   1.692  0.4765  0.2873  0.0146
11247SOL    HW238088   7.671   3.260   1.594 -0.8830  0.3188  1.0736
11248SOL     OW38089   1.385   5.764   1.627  0.4525  0.6550 -0.0120
11248SOL    HW138090   1.463   5.802   1.677  0.6298 -0.1288  0.3112
11248SOL    HW238091   1.336   5.838   1.581  0.4268  1.3459  1.1223
11249SOL     OW38092   8.968   5.298   4.350 -0.0524  0.3086  0.6151
11249SOL    HW138093   9.059   5.257   4.352  0.2388  0.9775  1.1591
11249SOL    HW238094   8.964   5.375   4.414  0.0291  2.5416 -1.9944
11250SOL     OW38095   2.119   7.834   4.251  0.3935 -0.1997  0.1328
11250SOL    HW138096   2.037   7.885   4.222  0.1109 -1.5913 -1.6002
11250SOL    HW238097   2.195   7.898   4.265 -0.1418  0.7721 -1.3247
11251SOL     OW38098   9.934   6.990   0.565 -0.2396 -0.7583  0.4123
11251SOL    HW138099  10.001   6.983   0.491  0.7761 -2.0351  1.4244
11251SOL    HW238100   9.842   6.980   0.528  0.2368 -0.8683 -0.7453
11253SOL     OW38101   5.521   9.731   1.860  0.2375  0.3918  0.0474
11253SOL    HW138102   5.612   9.738   1.901  0.5117  0.0185 -0.4881
11253SOL    HW238103   5.457   9.692   1.927  1.3401 -3.0740 -0.8048
11254SOL     OW38104   7.254   1.560   3.591 -0.5004  0.0450  0.0433
11254SOL    HW138105   7.197   1.487   3.629  0.2980 -0.8051 -0.3985
11254SOL    HW238106   7.319   1.522   3.526 -0.1151  1.1580 -0.2358
11255SOL     OW38107   8.319   1.237   1.724  0.6826  0.3501 -0.8779
11255SOL    HW138108   8.298   1.282   1.811 -2.2518 -4.4430  1.1317
11255SOL    HW238109   8.418   1.241   1.707  0.9864  3.7080  1.2447
11256SOL     OW38110   1.466   5.397   2.994 -0.0021 -0.5232 -0.2965
11256SOL    HW138111   1.549   5.453   2.990  1.5492 -2.6676  1.0969
11256SOL    HW238112   1.451   5.355   2.905 -0.9271  1.7042 -1.2280
11257SOL     OW38113   0.731   4.129   1.317 -0.0067  0.5779  0.4890
11257SOL    HW138114   0.657   4.061   1.321  0.9098 -0.4268  0.4650
11257SOL    HW238115   0.726   4.187   1.398 -1.7955  1.5552 -0.2795
11258SOL     OW38116   2.981   3.034   3.031 -0.5486  0.8835  0.2198
11258SOL    HW138117   3.036   3.065   3.109 -0.7016 -2.7403  1.8428
11258SOL    HW238118   2.897   2.991   3.065 -0.6850 -0.6211 -1.9682
11259SOL     OW38119   5.100   0.409   2.896  0.5337 -0.0242 -0.4316
11259SOL    HW138120   5.122   0.326   2.947 -0.6124 -0.4258 -0.5653
11259SOL    HW238121   5.006   0.402   2.861  0.2353  1.5431  0.0100
11260SOL     OW38122   0.333   0.110   3.754 -0.5380 -0.0667 -0.1564
11260SOL    HW138123   0.410   0.075   3.807 -0.3346  1.5107  0.6162
11260SOL    HW238124   0.367   0.152   3.670 -0.4954  1.1075  0.4390
11261SOL     OW38125   4.784   2.322   0.307 -0.0520 -0.4832 -0.6237
11261SOL    HW138126   4.772   2.240   0.251 -0.9723 -2.5388  2.4330
11261SOL    HW238127   4.795   2.296   0.403 -0.2744  2.9826  0.4386
11262SOL     OW38128   0.713   3.541   0.494  0.5832  0.7697  0.0443
11262SOL    HW138129   0.691   3.608   0.423 -0.3282  2.0384  1.4707
11262SOL    HW238130   0.695   3.582   0.584  1.7708 -0.7709  1.0096
11263SOL     OW38131   1.494   0.799   1.325 -0.3435  0.1369  0.2463
11263SOL    HW138132   1.576   0.780   1.379  0.0337  1.3495  0.1140
11263SOL    HW238133   1.421   0.832   1.385  0.0917  1.5328  0.0265
11265SOL     OW38134   3.777   9.642   3.892 -0.4853 -0.6749  0.5476
11265SOL    HW138135   3.730   9.731   3.893 -0.4407 -0.6532  0.5920
11265SOL    HW238136   3.711   9.570   3.912 -0.7450 -0.7557 -0.5519
11266SOL     OW38137   8.109   2.819   3.887  0.2082  0.0726 -0.1442
11266SOL    HW138138   8.078   2.787   3.798  0.5150 -0.0420 -0.2094
11266SOL    HW238139   8.088   2.750   3.956 -0.3872  0.3292 -0.0616
11267SOL     OW38140   8.885   6.669   1.444 -0.1721  0.2789  0.1431
11267SOL    HW138141   8.790   6.638   1.435  0.6375 -1.9317 -1.2542
11267SOL    HW238142   8.911   6.721   1.363 -0.0374  0.4485  0.2949
11268SOL     OW38143   4.146   2.107   2.460  0.5290  0.4386  0.4406
11268SOL    HW138144   4.216   2.111   2.389 -1.2244  0.3643 -1.3145
11268SOL    HW238145   4.167   2.032   2.523  2.5614  1.0511  0.5338
11269SOL     OW38146   1.981   8.570   2.999 -0.3282 -0.1596 -0.2247
11269SOL    HW138147   2.030   8.656   3.011 -0.1535 -0.4825  1.4039
11269SOL    HW238148   1.944   8.539   3.087 -0.9337 -1.4217 -0.9051
11270SOL     OW38149   3.275   8.064   1.306 -0.2334  0.1724  0.2756
11270SOL    HW138150   3.337   8.003   1.354  0.6106  0.6787 -0.1602
11270SOL    HW238151   3.301   8.071   1.210  1.9316  4.0073  1.0482
11271SOL     OW38152   4.756   7.307   3.182 -0.1164 -0.1291 -0.1046
11271SOL    HW138153   4.748   7.277   3.277 -1.3252  1.5544  0.3481
11271SOL    HW238154   4.734   7.230   3.121 -0.5941 -0.8801  0.9851
11272SOL     OW38155   3.006   4.058   4.104 -0.1459 -0.4178  0.0314
11272SOL    HW138156   2.936   4.041   4.035  0.5102 -0.6563 -0.5862
11272SOL    HW238157   2.984   4.141   4.154 -0.2733  0.1357 -0.9222
11273SOL     OW38158   4.109   9.744   0.162  0.4640 -0.0411  0.0427
11273SOL    HW138159   4.178   9.671   0.159  0.2100 -0.3222  0.9068
11273SOL    HW238160   4.120   9.796   0.246  0.4236  0.7150 -0.4110
11274SOL     OW38161   6.542   0.845   0.027 -0.1191  0.6171  0.0146
11274SOL    HW138162   6.638   0.819   0.037 -0.2093 -0.0186 -0.7317
11274SOL    HW238163   6.489   0.801   0.100  0.1302  0.8499  0.3399
11275SOL     OW38164   7.374   9.949   0.202  0.0197  0.1650 -0.1161
11275SOL    HW138165   7.456   9.915   0.248  1.4150 -0.5774 -2.9968
11275SOL    HW238166   7.401  10.007   0.125 -2.1641 -0.2027 -1.2002
11276SOL     OW38167   8.878   4.842   4.407 -0.1511  0.4652  0.4172
11276SOL    HW138168   8.839   4.903   4.476 -1.2417 -1.1908  1.2752
11276SOL    HW238169   8.882   4.890   4.319  0.4694  2.3036  1.4210
11277SOL     OW38170   5.669   9.430   3.005  0.4583  0.2850  0.0881
11277SOL    HW138171   5.597   9.489   3.041  0.7551  0.4239  0.4459
11277SOL    HW238172   5.628   9.364   2.942 -0.0179  0.2312  0.4479
11279SOL     OW38173   3.440   4.103   1.141 -0.0088 -1.0538  0.1959
11279SOL    HW138174   3.511   4.040   1.108 -0.2579 -1.7868  1.0478
11279SOL    HW238175   3.462   4.132   1.234 -1.3742 -2.1163  0.8600
11280SOL     OW38176   8.981   3.479   3.648 -0.2153 -0.2416 -0.8327
11280SOL    HW138177   8.939   3.390   3.665 -0.0272 -0.1936 -0.0902
11280SOL    HW238178   8.976   3.535   3.731  0.6097  0.0541 -0.9751
11281SOL     OW38179   2.892   8.865   3.642 -0.2921  0.6049 -0.0629
11281SOL    HW138180   2.923   8.911   3.559 -2.3198 -2.6685 -2.7692
11281SOL    HW238181   2.815   8.915   3.682 -0.3128  1.3684 -1.0333
11282SOL     OW38182   4.029   9.139   2.121  0.3699  0.3398 -0.0852
11282SOL    HW138183   4.040   9.051   2.077 -0.4318  0.8284 -1.2751
11282SOL    HW238184   4.103   9.153   2.187 -0.1935 -1.7382  1.0246
11283SOL     OW38185   9.793   9.657   2.393 -0.1256  0.4011  0.2315
11283SOL    HW138186   9.698   9.666   2.423 -0.0357  1.3038  0.2659
11283SOL    HW238187   9.848   9.729   2.434  0.6040 -0.1939  0.3118
11284SOL     OW38188   0.596   2.167   2.093  0.0038  0.4927 -0.2983
11284SOL    HW138189   0.668   2.227   2.060 -0.8288  2.5349  1.4583
11284SOL    HW238190   0.509   2.192   2.048 -0.5887  1.4875  1.3408
11285SOL     OW38191   0.342   8.183   3.040  0.1042 -0.1993 -0.0517
11285SOL    HW138192   0.266   8.237   3.073 -0.1896 -1.1837  0.9109
11285SOL    HW238193   0.316   8.086   3.039  0.1448 -0.2350 -3.0080
11286SOL     OW38194   6.016   6.838   2.549  0.2136  0.1009  0.1825
11286SOL    HW138195   6.063   6.891   2.619  0.2569  0.2634  0.0325
11286SOL    HW238196   5.927   6.809   2.583 -0.0365  0.7392  0.0640
11287SOL     OW38197   6.448   8.412   2.458 -0.3328  0.1534  0.1546
11287SOL    HW138198   6.380   8.388   2.388 -1.4532  1.6658  0.6917
11287SOL    HW238199   6.518   8.341   2.462 -1.0821 -0.7064 -1.4429
11288SOL     OW38200   0.706   9.317   3.973 -0.0577  0.5058 -0.4755
11288SOL    HW138201   0.756   9.269   4.045 -1.3378  0.3689  0.3549
11288SOL    HW238202   0.743   9.292   3.884 -0.0757 -1.3132 -0.0011
11289SOL     OW38203   2.103   5.833   0.543 -0.1129 -0.0545 -0.0663
11289SOL    HW138204   2.155   5.905   0.588 -0.0270 -1.2385  1.7763
11289SOL    HW238205   2.005   5.851   0.554 -0.1531  1.6547 -2.7026
11290SOL     OW38206   3.267   0.981   0.185  0.4666 -0.1056  0.0006
11290SOL    HW138207   3.296   1.063   0.235 -0.3226  0.3817 -0.3210
11290SOL    HW238208   3.266   1.001   0.087  2.2792 -1.1452 -0.2271
11291SOL     OW38209   7.527   6.327   3.603  0.3600  0.1564 -0.4232
11291SOL    HW138210   7.437   6.324   3.560 -0.2106  0.7967  0.7001
11291SOL    HW238211   7.570   6.237   3.598 -0.3373 -0.1481 -0.9567
11292SOL     OW38212   1.167   1.295   2.173 -0.2313  0.2971 -0.0731
11292SOL    HW138213   1.224   1.278   2.254 -2.1798 -2.5954  0.7886
11292SOL    HW238214   1.073   1.310   2.202 -0.5222  1.7932 -1.7002
11293SOL     OW38215   2.202   1.020   0.482 -0.4033 -0.2711  0.6879
11293SOL    HW138216   2.109   1.054   0.494 -0.0819  0.5593  0.8723
11293SOL    HW238217   2.267   1.093   0.503  0.2843 -0.7509  0.2520
11294SOL     OW38218   2.284   5.864   2.098 -0.1777  0.0947 -0.1675
11294SOL    HW138219   2.314   5.878   2.192 -1.6418 -0.9025  0.4627
11294SOL    HW238220   2.316   5.776   2.064 -0.8478 -0.1697 -0.1174
11295SOL     OW38221   0.629   3.714   0.282  0.6057  0.0388  0.6277
11295SOL    HW138222   0.592   3.659   0.207 -0.3475  1.3432  0.1190
11295SOL    HW238223   0.557   3.772   0.320  0.4981 -2.2163  4.0769
11297SOL     OW38224   3.221   9.500   3.600 -0.4993  0.3337 -0.0754
11297SOL    HW138225   3.186   9.416   3.640  2.5646 -0.1541  1.6870
11297SOL    HW238226   3.305   9.480   3.549  0.5516  2.3651  0.8021
11298SOL     OW38227   0.523   1.183   3.925 -0.4814 -0.1471 -0.5352
11298SOL    HW138228   0.488   1.119   3.993 -3.2012  0.2820 -1.4769
11298SOL    HW238229   0.533   1.137   3.837  3.6322 -0.8699  0.1935
11300SOL     OW38230   6.963   6.906   2.779  0.1136 -0.2438  0.2352
11300SOL    HW138231   7.008   6.839   2.720 -1.2595 -0.0301 -1.0849
11300SOL    HW238232   6.895   6.860   2.835  0.7646 -0.3026  0.9778
11301SOL     OW38233   8.872   2.004   3.201 -0.8217 -0.1202  0.3140
11301SOL    HW138234   8.928   2.058   3.139  1.1397 -0.7203  1.5420
11301SOL    HW238235   8.778   2.000   3.166  0.1372 -0.0584 -2.3419
11303SOL     OW38236   2.091   5.874   2.560  0.0804  0.4651 -0.6386
11303SOL    HW138237   2.074   5.962   2.603  0.4501  1.0946 -1.7541
11303SOL    HW238238   2.162   5.825   2.610 -1.6507 -0.1744  1.2926
11304SOL     OW38239   6.020   8.814   3.014  0.2356 -0.9693  0.1389
11304SOL    HW138240   6.060   8.746   3.076  2.1269 -1.3126 -1.3917
11304SOL    HW238241   6.092   8.850   2.954 -1.2616  0.4644 -0.8302
11305SOL     OW38242   0.345   2.653   2.570 -0.6156  1.2012 -0.0282
11305SOL    HW138243   0.245   2.661   2.575 -0.7831 -1.3564  1.3989
11305SOL    HW238244   0.387   2.716   2.635 -1.3600  1.0738  0.5811
11307SOL     OW38245   1.773   3.298   2.691 -0.7778 -0.0910  0.1793
11307SOL    HW138246   1.721   3.267   2.771 -2.0149 -0.1970 -0.6475
11307SOL    HW238247   1.710   3.315   2.615  0.4147 -0.2549 -0.8613
11309SOL     OW38248   0.558   6.181   4.305  0.0928 -0.2893 -0.3838
11309SOL    HW138249   0.623   6.179   4.228  0.8109  0.0913  0.2089
11309SOL    HW238250   0.607   6.166   4.390 -0.3847  1.3670  0.2072
11310SOL     OW38251   1.652   7.442   1.275 -0.3260  0.2831  0.4414
11310SOL    HW138252   1.594   7.365   1.251 -1.2476  1.0406  0.1855
11310SOL    HW238253   1.744   7.410   1.297 -0.5363 -0.8158 -0.2557
11311SOL     OW38254   5.350   9.703   1.484  0.0263 -0.4598  0.4251
11311SOL    HW138255   5.313   9.645   1.411  1.4131  0.6098 -1.1453
11311SOL    HW238256   5.280   9.714   1.555  0.2130 -5.3824  1.5936
11312SOL     OW38257   8.265   8.571   3.272 -0.4069 -0.3913  0.4869
11312SOL    HW138258   8.216   8.544   3.189  1.1683  1.6992 -1.2033
11312SOL    HW238259   8.342   8.510   3.287 -0.7331 -0.8141  0.4414
11313SOL     OW38260   9.744   7.552   1.842  0.4060 -0.4383 -0.0910
11313SOL    HW138261   9.755   7.553   1.743  1.8677 -0.0195  0.0703
11313SOL    HW238262   9.646   7.549   1.865  0.0641 -0.3940 -1.5340
11315SOL     OW38263   8.646   8.670   3.996 -0.5978 -0.1512 -0.3534
11315SOL    HW138264   8.580   8.610   3.950 -0.9637  0.4859 -0.6610
11315SOL    HW238265   8.698   8.721   3.927  0.6306 -1.0716 -0.1407
11316SOL     OW38266   8.678   7.775   1.069  0.2936  0.0968 -0.4061
11316SOL    HW138267   8.655   7.683   1.038 -2.1490  1.0197 -1.5194
11316SOL    HW238268   8.678   7.779   1.169  2.0777 -1.4793 -0.3303
11317SOL     OW38269   8.323   6.628   3.119 -0.6741  0.0171  0.2508
11317SOL    HW138270   8.284   6.634   3.212  1.4509 -0.0141  1.1607
11317SOL    HW238271   8.419   6.655   3.121 -0.6082  0.0106 -1.9637
11318SOL     OW38272   0.208   1.399   3.209 -0.5191 -0.1543  0.6926
11318SOL    HW138273   0.157   1.364   3.130  1.0663 -1.4303  0.1989
11318SOL    HW238274   0.144   1.439   3.275 -1.7965  1.7298 -1.6170
11319SOL     OW38275   9.328   0.235   3.512 -0.5729  0.5370 -0.5408
11319SOL    HW138276   9.313   0.166   3.441 -0.3256  0.5674 -0.6219
11319SOL    HW238277   9.298   0.324   3.479 -0.8007  0.4872 -0.4716
11320SOL     OW38278   2.610   2.880   0.636  0.8182  0.5646  0.7511
11320SOL    HW138279   2.601   2.973   0.673  1.4692  1.0922 -0.3726
11320SOL    HW238280   2.576   2.878   0.542  0.2308 -0.4883  0.9847
11321SOL     OW38281   1.040   0.616   2.362  0.2528 -0.3502 -0.0416
11321SOL    HW138282   1.100   0.686   2.322 -0.0762  0.2027  0.4116
11321SOL    HW238283   1.020   0.641   2.457 -0.7023 -0.5162 -0.1968
11322SOL     OW38284   0.433   7.967   2.019 -0.1233  0.5825  0.3893
11322SOL    HW138285   0.484   7.927   1.943 -2.6501  0.2775 -1.2205
11322SOL    HW238286   0.381   7.896   2.065 -0.8538  1.2292  0.5775
11323SOL     OW38287   6.628   1.373   3.306  0.5521  0.2083  0.2800
11323SOL    HW138288   6.579   1.460   3.297 -2.7940 -1.3585  2.1022
11323SOL    HW238289   6.726   1.390   3.310  0.0462  3.7655 -0.8185
11324SOL     OW38290   9.532   5.115   1.380 -0.1302  0.2145  0.4950
11324SOL    HW138291   9.623   5.131   1.420 -0.2123  1.2236  0.2864
11324SOL    HW238292   9.488   5.039   1.428  0.8622 -0.3529  0.5360
11326SOL     OW38293   2.948   5.290   0.086  0.3611 -0.4343  0.0687
11326SOL    HW138294   2.992   5.345   0.156  1.0861 -1.2188  0.2405
11326SOL    HW238295   3.018   5.246   0.029 -0.1623 -2.1327  0.6934
11327SOL     OW38296   3.601   5.641   1.823  0.7905  0.0479 -0.1339
11327SOL    HW138297   3.658   5.723   1.821 -0.3227  0.8213 -1.1945
11327SOL    HW238298   3.657   5.560   1.806  2.0284  0.4902  1.6767
11329SOL     OW38299   3.734   3.931   0.247 -0.2792 -0.5709  0.5198
11329SOL    HW138300   3.704   3.888   0.161 -1.6560  0.2298  0.5710
11329SOL    HW238301   3.765   4.025   0.228  1.2216 -1.0338  0.6320
11331SOL     OW38302   4.073   1.760   3.934 -0.6326 -0.5292 -0.2172
11331SOL    HW138303   4.024   1.676   3.910 -1.3839 -0.0211 -0.4977
11331SOL    HW238304   4.020   1.839   3.901  1.6353 -0.0491 -2.9089
11333SOL     OW38305   5.145   4.887   0.719  0.4684 -0.1622  0.0567
11333SOL    HW138306   5.205   4.931   0.785  0.4659  1.4535 -0.9925
11333SOL    HW238307   5.060   4.940   0.712 -0.7967 -2.0320  1.0169
11334SOL     OW38308   9.544   5.605   3.151 -0.3990 -0.4583 -0.4258
11334SOL    HW138309   9.461   5.568   3.194 -0.5027  2.2478  1.8301
11334SOL    HW238310   9.614   5.620   3.221  1.2023 -0.5761 -1.9684
11335SOL     OW38311   2.058   7.663   4.055 -0.2714  0.0641  0.5395
11335SOL    HW138312   2.130   7.663   3.986 -0.3006 -1.3743  0.5086
11335SOL    HW238313   2.085   7.722   4.131  0.5595  0.2115  0.1329
11336SOL     OW38314   2.401   0.865   2.719 -0.2665 -0.1176  0.1496
11336SOL    HW138315   2.458   0.799   2.768 -0.9139 -1.3503 -0.7178
11336SOL    HW238316   2.346   0.817   2.651 -0.2330  1.4186 -0.9944
11338SOL     OW38317   9.974   4.144   4.110  0.3261  0.6071 -0.3179
11338SOL    HW138318   9.912   4.145   4.189  1.0402  0.3050  0.2513
11338SOL    HW238319   9.962   4.228   4.057  0.4679  1.2157  0.5996
11340SOL     OW38320   1.071   6.727   0.246  0.0319  0.0792 -0.0638
11340SOL    HW138321   1.131   6.721   0.325 -0.3799 -2.4253  0.1150
11340SOL    HW238322   1.034   6.636   0.226 -1.7648  1.1284 -1.6542
11341SOL     OW38323   3.637   9.330   1.985  0.2464 -0.5172  0.0296
11341SOL    HW138324   3.541   9.348   2.005 -0.1210 -0.6633 -1.5983
11341SOL    HW238325   3.685   9.417   1.971  0.6324 -0.3764  2.0028
11342SOL     OW38326   2.289   9.296   0.029 -0.1135  0.4012  0.4823
11342SOL    HW138327   2.228   9.352   0.086 -0.4707 -0.4065  0.9087
11342SOL    HW238328   2.375   9.344   0.015  0.1462  0.4287  2.0712
11344SOL     OW38329   1.165   8.807   2.474 -0.1355  0.1169 -0.3170
11344SOL    HW138330   1.073   8.839   2.449 -0.8259 -1.0709  0.7031
11344SOL    HW238331   1.160   8.746   2.552  1.3440 -1.3755 -1.3471
11345SOL     OW38332   0.497   6.016   3.162 -0.1843 -0.0010  0.6018
11345SOL    HW138333   0.429   6.055   3.224 -1.5033 -2.6338  0.8931
11345SOL    HW238334   0.515   6.081   3.088 -0.9803  1.8516  1.9796
11346SOL     OW38335   3.310   0.988   3.246 -0.3200 -0.5843 -0.1152
11346SOL    HW138336   3.214   0.964   3.255 -1.0551  0.8621 -3.4381
11346SOL    HW238337   3.330   1.068   3.303 -1.1789 -0.6746  0.3168
11347SOL     OW38338   0.935   6.332   2.114  0.2799  0.4669  0.6303
11347SOL    HW138339   0.886   6.325   2.028  2.3979  0.8752 -0.6333
11347SOL    HW238340   0.907   6.415   2.162 -1.0889  0.1083  0.4657
11348SOL     OW38341   1.846   8.763   3.689  0.1755  0.0468 -0.2944
11348SOL    HW138342   1.777   8.812   3.637  1.7885  1.8921 -0.7846
11348SOL    HW238343   1.924   8.741   3.630 -0.2059 -2.5261  0.0996
11349SOL     OW38344   3.378   0.362   1.542  0.0208  0.0519 -0.1106
11349SOL    HW138345   3.390   0.285   1.604  0.4917 -1.2377 -1.7495
11349SOL    HW238346   3.463   0.415   1.537  1.6357 -2.6548 -3.2757
11350SOL     OW38347   1.329   3.730   1.884  0.7474  0.0642  0.1929
11350SOL    HW138348   1.357   3.689   1.971  0.6242  0.5099  0.4406
11350SOL    HW238349   1.289   3.820   1.900  2.3062  0.8954 -0.4809
11351SOL     OW38350   0.399   8.237   4.006  0.1665 -0.0009 -0.5316
11351SOL    HW138351   0.381   8.149   3.963 -1.4781  0.6183 -1.1680
11351SOL    HW238352   0.496   8.262   3.993  0.1531 -0.7519 -2.1508
11352SOL     OW38353   0.949   1.255   2.804 -0.0602 -0.1736 -0.2337
11352SOL    HW138354   0.893   1.335   2.825 -1.6075 -0.7383 -2.0568
11352SOL    HW238355   0.940   1.233   2.707  2.6881 -0.7947 -0.3837
11353SOL     OW38356   9.406   5.857   1.301 -0.1934  0.2099  0.0019
11353SOL    HW138357   9.359   5.770   1.286  0.7669 -0.1289 -1.1565
11353SOL    HW238358   9.408   5.878   1.399  0.7646 -1.7781  0.4318
11355SOL     OW38359   0.181   7.846   0.078 -0.5176 -0.1728  0.3119
11355SOL    HW138360   0.212   7.794  -0.002 -0.1628 -0.2136  0.4758
11355SOL    HW238361   0.181   7.944   0.055 -2.8268 -0.3402 -0.5581
11356SOL     OW38362   4.398   0.591   2.667 -0.0054 -0.2006 -0.4062
11356SOL    HW138363   4.300   0.586   2.649  0.1838 -1.7783 -1.0535
11356SOL    HW238364   4.414   0.601   2.765 -0.9026  3.6321 -0.5821
11360SOL     OW38365   9.169   4.596   3.623  0.0302 -0.0768 -0.2068
11360SOL    HW138366   9.218   4.616   3.538 -1.0953  1.1025 -0.5899
11360SOL    HW238367   9.095   4.532   3.604 -1.4040  1.6198 -0.4995
11361SOL     OW38368   0.882   7.499   3.104  0.0109  0.6443 -0.0269
11361SOL    HW138369   0.866   7.579   3.162  0.7102  1.4476 -0.9307
11361SOL    HW238370   0.874   7.526   3.007  0.8581 -0.2481 -0.3500
11362SOL     OW38371   2.554   7.056   0.459 -0.4603  0.4567  0.5418
11362SOL    HW138372   2.623   7.091   0.396  0.2642  1.5369  1.9126
11362SOL    HW238373   2.588   6.971   0.501 -0.4110  0.4168  0.4231
11363SOL     OW38374   7.627   1.763   0.393  0.0088  0.0021  0.3159
11363SOL    HW138375   7.610   1.724   0.484 -0.0042  1.1115  0.8020
11363SOL    HW238376   7.541   1.768   0.343 -0.0750 -0.0950  0.4484
11364SOL     OW38377   9.127   1.814   3.809  0.3641 -0.2465 -0.1379
11364SOL    HW138378   9.044   1.842   3.762  0.6690  0.2016 -0.4121
11364SOL    HW238379   9.151   1.720   3.782 -1.0170 -1.0394  1.2697
11367SOL     OW38380   2.498   5.186   1.920 -0.0060 -0.1752 -0.1158
11367SOL    HW138381   2.532   5.236   1.841  0.1076 -0.0047  0.0399
11367SOL    HW238382   2.430   5.119   1.890 -0.3737  0.2743 -0.2896
11368SOL     OW38383   4.915   2.126   1.502  0.1014 -0.1341 -0.2752
11368SOL    HW138384   4.902   2.112   1.403  0.5773  3.3418 -0.8761
11368SOL    HW238385   4.896   2.221   1.525 -2.3017 -1.3982  3.4145
11369SOL     OW38386   4.389   2.455   0.920 -0.1118 -0.1313  0.5629
11369SOL    HW138387   4.412   2.524   0.853 -2.3254  0.5222  0.4457
11369SOL    HW238388   4.379   2.366   0.875  0.0021 -0.0045  0.2890
11371SOL     OW38389   7.735   1.058   2.941 -0.3767  0.8925  0.2537
11371SOL    HW138390   7.676   1.008   3.004 -0.7144  1.1174  0.1174
11371SOL    HW238391   7.831   1.040   2.964 -0.4376 -1.6516 -1.2100
11372SOL     OW38392   1.439   7.039   1.917 -0.1626 -0.8717 -0.8447
11372SOL    HW138393   1.412   7.135   1.906 -1.3320 -0.8967  1.4628
11372SOL    HW238394   1.513   7.033   1.984  0.0643 -1.5664 -1.1515
11374SOL     OW38395   1.168   0.854   2.339 -0.6411 -0.4351 -0.3147
11374SOL    HW138396   1.187   0.891   2.430 -3.3155  0.6537 -0.1449
11374SOL    HW238397   1.112   0.920   2.287 -0.2902 -1.6270 -2.2576
11375SOL     OW38398   2.475   3.014   3.531  0.7757 -0.0468  0.5704
11375SOL    HW138399   2.384   3.030   3.570  0.1790 -0.1930 -0.7217
11375SOL    HW238400   2.523   2.945   3.586  0.6221  0.9618  2.0129
11376SOL     OW38401   2.924   9.674   1.940  0.4103 -0.0732 -0.4346
11376SOL    HW138402   2.901   9.728   1.859  0.8978  1.3205  0.3311
11376SOL    HW238403   2.867   9.704   2.017  0.7756 -0.5712  0.0288
11378SOL     OW38404   5.026   2.441   3.170  0.9435  0.7901 -0.5265
11378SOL    HW138405   4.972   2.450   3.253 -1.6937 -0.7280 -2.0084
11378SOL    HW238406   5.052   2.532   3.137 -2.2552  1.6789 -0.7285
11379SOL     OW38407   7.728   8.034   3.554  0.8691 -0.1409 -0.5709
11379SOL    HW138408   7.827   8.021   3.551  0.9867  0.9527 -1.7852
11379SOL    HW238409   7.684   7.958   3.506  1.1799 -0.0986 -0.9348
11380SOL     OW38410   0.019   2.906   1.445  0.0144 -0.3886 -0.5075
11380SOL    HW138411  -0.007   2.879   1.352 -1.0220 -2.0003  0.2340
11380SOL    HW238412   0.051   2.826   1.495 -0.5603  0.2403  0.8933
11382SOL     OW38413   4.466   3.340   2.965  0.7229  0.4542  0.2479
11382SOL    HW138414   4.444   3.432   2.998  0.7871  0.5716 -0.0288
11382SOL    HW238415   4.438   3.332   2.869  1.0992  0.3197  0.1514
11384SOL     OW38416   7.620   0.862   0.644 -0.1859  0.6687 -0.2767
11384SOL    HW138417   7.660   0.770   0.650  1.3763  1.4169  1.2284
11384SOL    HW238418   7.591   0.891   0.735 -1.0128  1.5368 -0.8135
11385SOL     OW38419   0.242   9.607   2.017  0.3681 -0.1674 -0.4236
11385SOL    HW138420   0.202   9.664   1.945 -1.5459 -1.4692 -0.4362
11385SOL    HW238421   0.236   9.656   2.105 -1.2552 -0.2970 -0.4339
11386SOL     OW38422   0.952   4.610   3.109 -0.1981  0.4843  0.3938
11386SOL    HW138423   0.908   4.617   3.019 -0.2262  1.8145  0.5023
11386SOL    HW238424   1.051   4.623   3.099  0.2370 -2.6897  0.1249
11387SOL     OW38425   9.621   9.795   0.337 -0.1691  0.1494  0.7486
11387SOL    HW138426   9.640   9.761   0.245  0.3726 -0.8775  1.2444
11387SOL    HW238427   9.636   9.894   0.339  0.2904  0.1022 -0.1360
11388SOL     OW38428   2.218   6.341   3.730 -0.0004  0.7283 -0.2099
11388SOL    HW138429   2.170   6.283   3.664  1.7190  0.7550 -1.5092
11388SOL    HW238430   2.309   6.363   3.696  1.2542  0.0303  2.5820
11389SOL     OW38431   8.810   0.411   2.774  0.1231 -0.0954  0.3075
11389SOL    HW138432   8.889   0.471   2.765 -0.3134  0.4307 -0.0520
11389SOL    HW238433   8.838   0.316   2.762  0.9577 -0.0361  1.7049
11390SOL     OW38434   1.020   0.269   3.125 -0.5539 -0.0405  0.5895
11390SOL    HW138435   0.938   0.211   3.123 -0.4927 -0.1721  1.6077
11390SOL    HW238436   1.055   0.274   3.219  1.2384 -0.8819 -0.0050
11391SOL     OW38437   1.798   7.927   2.053 -0.7384  0.5177 -0.4253
11391SOL    HW138438   1.787   8.018   2.092 -2.8915 -0.3209  0.9915
11391SOL    HW238439   1.761   7.858   2.116  1.6382 -1.4327 -1.0568
11392SOL     OW38440   9.802   7.596   3.951 -0.4562 -1.0763 -0.9106
11392SOL    HW138441   9.870   7.668   3.941 -1.4281 -0.3391 -2.3130
11392SOL    HW238442   9.710   7.636   3.950 -0.9516 -2.0937  0.5798
11393SOL     OW38443   3.685   1.762   1.878 -0.2023 -0.7360 -0.0684
11393SOL    HW138444   3.637   1.767   1.966  1.1535  0.4799  0.6223
11393SOL    HW238445   3.772   1.811   1.885 -0.6748  0.5056 -2.4594
11394SOL     OW38446   1.846   8.863   2.318  0.7919 -0.4462 -0.1028
11394SOL    HW138447   1.788   8.825   2.246  0.6761 -0.7771  0.1651
11394SOL    HW238448   1.796   8.863   2.405  1.5029 -1.5637  0.3169
11395SOL     OW38449   0.537   1.333   1.164  0.3749 -0.4706 -0.1474
11395SOL    HW138450   0.516   1.368   1.072  0.5269 -2.0777 -0.8130
11395SOL    HW238451   0.461   1.354   1.226  0.5788  1.2504 -0.4578
11396SOL     OW38452   3.399   0.368   2.083  0.6475  0.8754 -0.0265
11396SOL    HW138453   3.365   0.277   2.059 -0.7131  1.5025 -0.5501
11396SOL    HW238454   3.482   0.387   2.030  0.8719 -0.0133 -0.0014
11397SOL     OW38455   9.308   6.221   2.002  0.3537  0.4280 -0.5750
11397SOL    HW138456   9.245   6.203   1.927  0.3891 -2.4454  0.0216
11397SOL    HW238457   9.257   6.252   2.082 -0.2025 -0.8215 -0.4322
11399SOL     OW38458   2.799   6.512   1.760 -0.2074 -0.1214  0.6150
11399SOL    HW138459   2.829   6.432   1.812  1.1125  0.1893  0.3551
11399SOL    HW238460   2.754   6.483   1.676 -2.6716 -0.6422  2.0492
11400SOL     OW38461   3.652   6.535   3.855 -0.1554 -0.0450 -0.5436
11400SOL    HW138462   3.648   6.629   3.890 -1.3213 -1.0216  2.1232
11400SOL    HW238463   3.559   6.504   3.835  0.3041 -0.3548 -2.2031
11401SOL     OW38464   0.718   4.295   3.898 -0.6212  0.8042  0.2662
11401SOL    HW138465   0.784   4.370   3.892  1.4141 -1.0630 -1.5924
11401SOL    HW238466   0.704   4.256   3.807 -1.4449 -1.2349  1.2440
11402SOL     OW38467   8.334   2.443   2.381  0.3301  0.2870  0.2648
11402SOL    HW138468   8.352   2.389   2.463 -0.3386  0.2457  0.3891
11402SOL    HW238469   8.266   2.396   2.325 -0.5922  1.2186  0.5995
11404SOL     OW38470   8.253   0.516   0.140  0.0529 -0.0818 -0.2723
11404SOL    HW138471   8.233   0.613   0.152  1.5446  0.2743 -0.6148
11404SOL    HW238472   8.345   0.496   0.174  0.5090 -0.9954 -2.0047
11405SOL     OW38473   3.879   3.459   1.472  0.3526 -0.1009 -0.8652
11405SOL    HW138474   3.892   3.379   1.532 -0.4051 -0.2190 -0.8445
11405SOL    HW238475   3.964   3.480   1.425  1.5143  1.1528  1.6825
11406SOL     OW38476   1.262   5.770   2.393  0.1756  0.2835 -0.2634
11406SOL    HW138477   1.305   5.707   2.329 -0.9025  1.2440 -1.9654
11406SOL    HW238478   1.175   5.732   2.424  0.0945  0.3894 -0.3594
11408SOL     OW38479   1.066   0.830   1.734  0.3699  0.1950 -0.1284
11408SOL    HW138480   1.085   0.833   1.832  0.3249  0.0840 -0.1151
11408SOL    HW238481   0.968   0.841   1.718  0.7108  3.3654 -0.3551
11409SOL     OW38482   5.887   9.260   3.673  0.0187 -0.1079  0.2652
11409SOL    HW138483   5.917   9.169   3.643  1.1497  0.5288 -0.5905
11409SOL    HW238484   5.965   9.323   3.670 -0.3222  0.4502  2.6804
11410SOL     OW38485   8.962   6.661   3.027 -0.4305  0.5579 -0.1160
11410SOL    HW138486   8.872   6.629   3.055 -0.1176  0.0177  0.2708
11410SOL    HW238487   9.023   6.667   3.107 -0.7840  3.1535  0.0257
11411SOL     OW38488   0.468   5.687   0.045  0.2110 -0.4939 -0.3437
11411SOL    HW138489   0.490   5.606   0.099 -0.9495 -0.1447  0.6864
11411SOL    HW238490   0.396   5.739   0.091  0.9101  1.1105 -1.0040
11413SOL     OW38491   8.519   4.621   2.007 -0.3750 -0.1996 -0.0637
11413SOL    HW138492   8.601   4.676   2.020 -1.7207  1.5879  0.9356
11413SOL    HW238493   8.473   4.648   1.922  0.1249 -1.3037 -0.7033
11414SOL     OW38494   9.165   5.086   4.095  0.1152  0.7287  0.2284
11414SOL    HW138495   9.219   5.002   4.096 -0.6046  0.2852  1.2714
11414SOL    HW238496   9.191   5.143   4.172  0.0685  1.1383 -0.0562
11415SOL     OW38497   0.774   6.462   0.259  0.4306 -0.0853 -0.1534
11415SOL    HW138498   0.868   6.470   0.226  0.0833  2.0944 -0.6888
11415SOL    HW238499   0.728   6.551   0.250 -0.7200 -0.3112  2.9913
11416SOL     OW38500   2.869   0.512   3.968 -0.3988  0.3541  0.2516
11416SOL    HW138501   2.902   0.460   3.889  0.7933 -0.7237  1.4309
11416SOL    HW238502   2.782   0.472   4.000  0.1250 -0.4524  0.6846
11417SOL     OW38503   9.678   8.176   3.802  0.1465  0.2854 -0.0027
11417SOL    HW138504   9.657   8.201   3.708  0.9660  0.2739 -0.1916
11417SOL    HW238505   9.705   8.257   3.853 -0.0180  0.2477  0.1431
11418SOL     OW38506   4.162   6.167   2.795  0.0615  0.1759  0.4931
11418SOL    HW138507   4.234   6.181   2.727 -0.4243 -1.4418 -0.3950
11418SOL    HW238508   4.136   6.070   2.796 -1.9125  0.6876  0.9901
11419SOL     OW38509   3.194   7.939   0.644 -0.2115 -0.2584  0.4516
11419SOL    HW138510   3.146   8.024   0.621  0.5769 -0.0872 -0.6373
11419SOL    HW238511   3.289   7.947   0.616  0.0508 -1.2149  1.0699
11420SOL     OW38512   9.324   0.408   0.898  0.0350  0.1616  0.9466
11420SOL    HW138513   9.329   0.506   0.877  1.0766 -0.1287 -0.2346
11420SOL    HW238514   9.326   0.395   0.997  0.1840  1.3136  1.1031
11421SOL     OW38515   2.862   5.566   2.610  0.2724 -0.1772 -0.1105
11421SOL    HW138516   2.863   5.625   2.529  1.9199 -0.8414 -0.5901
11421SOL    HW238517   2.798   5.604   2.677  0.6655  1.6753 -0.7464
11422SOL     OW38518   4.015   9.620   3.805  0.1023 -0.4909  0.2295
11422SOL    HW138519   3.920   9.640   3.826  0.4899  1.9563 -0.2080
11422SOL    HW238520   4.020   9.544   3.740 -1.6216  0.4818 -1.0524
11423SOL     OW38521   6.840   7.864   1.407  0.1643 -0.3338  0.3708
11423SOL    HW138522   6.872   7.805   1.482  2.5470 -0.5349 -0.7708
11423SOL    HW238523   6.878   7.955   1.418  0.1134 -0.2245 -0.3429
11424SOL     OW38524   6.457   9.612   4.220  0.1648 -0.2285 -0.1266
11424SOL    HW138525   6.400   9.687   4.255 -0.6956 -1.5273  1.3071
11424SOL    HW238526   6.405   9.527   4.221  1.7482 -1.2221  0.0956
11425SOL     OW38527   3.513   8.341   3.041 -0.3925  0.1555 -0.4101
11425SOL    HW138528   3.598   8.299   3.009  0.7162  2.2841 -0.4059
11425SOL    HW238529   3.529   8.439   3.058 -1.8328 -0.1944  3.4215
11427SOL     OW38530   6.101   6.865   3.421  0.1376  0.3607  0.1895
11427SOL    HW138531   6.108   6.778   3.468  0.0877  0.9842  1.3624
11427SOL    HW238532   6.040   6.926   3.472  1.0873  1.4870  0.0077
11428SOL     OW38533   5.629   0.499   0.936  0.7128  0.1666 -0.3849
11428SOL    HW138534   5.600   0.405   0.918 -1.6051  0.9700 -1.1432
11428SOL    HW238535   5.704   0.524   0.875  0.4631 -0.7848 -1.0850
11429SOL     OW38536   4.431   2.580   1.972  0.0492  0.3613  0.0561
11429SOL    HW138537   4.525   2.587   2.004  0.4149  0.0159 -0.9426
11429SOL    HW238538   4.412   2.652   1.905 -1.1478  1.9771  2.0495
11431SOL     OW38539   1.563   5.793   2.825 -0.5853  0.0853 -0.2042
11431SOL    HW138540   1.495   5.772   2.755 -1.4049 -0.2297  0.6753
11431SOL    HW238541   1.536   5.750   2.911  0.2212  0.7747  0.3995
11432SOL     OW38542   4.189   9.545   1.823  0.7111  0.4487  0.0443
11432SOL    HW138543   4.108   9.506   1.867  1.0857 -1.0249 -0.5602
11432SOL    HW238544   4.164   9.629   1.775 -0.1666  0.7716  1.0403
11434SOL     OW38545   1.980   6.405   2.464  0.3593  0.1496  0.1653
11434SOL    HW138546   1.913   6.469   2.500  0.5579 -0.1865  1.1384
11434SOL    HW238547   1.933   6.334   2.411  0.1723  1.2837 -1.2240
11436SOL     OW38548   4.107   3.295   2.957  0.0562  0.1456  0.2231
11436SOL    HW138549   4.018   3.262   2.990  0.2275 -0.6686 -0.1400
11436SOL    HW238550   4.167   3.218   2.940 -0.3477  0.4536 -2.9849
11438SOL     OW38551   1.844   7.040   0.177 -0.3668 -0.0676  0.2266
11438SOL    HW138552   1.873   6.954   0.218  0.1814  0.3947  0.8354
11438SOL    HW238553   1.874   7.116   0.236 -1.1165  0.5145 -0.1398
11439SOL     OW38554   1.162   4.911   2.810  0.2536 -0.1445  0.1113
11439SOL    HW138555   1.200   4.943   2.897 -2.7217  0.5062  1.2491
11439SOL    HW238556   1.169   4.984   2.742 -1.4326  0.9770  1.1051
11440SOL     OW38557   1.316   0.335   2.041  0.8694  0.3631  0.0785
11440SOL    HW138558   1.276   0.404   2.101  0.5371  1.0130 -0.8694
11440SOL    HW238559   1.257   0.321   1.962  1.8636  0.3926 -0.6868
11441SOL     OW38560   0.503   6.472   2.970  0.2973 -0.1847 -0.0680
11441SOL    HW138561   0.510   6.431   3.060  1.1684 -0.6204 -0.3307
11441SOL    HW238562   0.487   6.401   2.901 -0.5028  0.1590 -0.2436
11442SOL     OW38563   5.849   9.671   3.886  0.1684 -0.4295 -0.3437
11442SOL    HW138564   5.913   9.734   3.841 -0.3063 -0.2698 -0.7897
11442SOL    HW238565   5.788   9.631   3.819 -0.3566 -0.4051  0.1187
11443SOL     OW38566   4.720   1.692   0.095  0.0293 -0.0703  0.2403
11443SOL    HW138567   4.646   1.742   0.049 -0.6234  2.0491  3.4283
11443SOL    HW238568   4.687   1.603   0.124 -0.7754  0.1917  0.1452
11445SOL     OW38569   2.842   0.073   4.164  0.5884 -0.2917 -0.1636
11445SOL    HW138570   2.784   0.090   4.244  0.4176  0.4866 -0.4493
11445SOL    HW238571   2.917   0.012   4.190 -0.8003 -1.9379  0.0080
11447SOL     OW38572   1.193   9.918   4.099 -0.0327 -0.0362  0.0893
11447SOL    HW138573   1.126   9.855   4.138 -1.7784  1.9021  0.3412
11447SOL    HW238574   1.202   9.901   4.001  0.7024 -1.7023  0.4371
11448SOL     OW38575   8.373   8.385   2.680  0.6672 -0.2771  0.1202
11448SOL    HW138576   8.471   8.398   2.663  0.5033 -1.5301 -1.9936
11448SOL    HW238577   8.332   8.471   2.708  2.7055 -0.1224  2.8118
11449SOL     OW38578   3.481   5.194   2.710 -0.2850 -0.0433  0.2319
11449SOL    HW138579   3.409   5.234   2.767 -1.3967 -2.2620  0.4418
11449SOL    HW238580   3.535   5.131   2.764  1.2009  0.8424 -0.1922
11450SOL     OW38581   1.726   1.071   0.389  0.3463  0.1055 -0.2747
11450SOL    HW138582   1.668   1.150   0.408  2.1668  1.3488  0.2560
11450SOL    HW238583   1.741   1.064   0.290 -0.2858  0.0709 -0.3706
11451SOL     OW38584   1.198   2.128   1.142 -0.5078  0.5365 -0.1275
11451SOL    HW138585   1.213   2.063   1.216 -1.2568  0.3275 -0.1480
11451SOL    HW238586   1.285   2.169   1.114 -0.1324  0.0836  0.3777
11452SOL     OW38587   7.906   1.959   2.173  0.3100 -0.4326 -0.1298
11452SOL    HW138588   7.936   1.932   2.081 -1.7357 -0.5852 -0.7899
11452SOL    HW238589   7.951   1.901   2.241  1.1164 -0.9624 -1.0993
11454SOL     OW38590   0.452   8.836   0.833  0.3498 -0.3670 -0.4374
11454SOL    HW138591   0.456   8.933   0.856  1.7105 -0.9102  1.8299
11454SOL    HW238592   0.475   8.824   0.737  0.7025  1.5235 -0.6099
11455SOL     OW38593   1.954   2.848   0.353  0.1662 -0.5092 -0.3409
11455SOL    HW138594   2.025   2.789   0.391  0.2356 -0.1918  0.0260
11455SOL    HW238595   1.866   2.801   0.356  0.5127 -1.2511 -1.6308
11456SOL     OW38596   0.016   8.584   0.067 -1.0627  0.0533 -0.3757
11456SOL    HW138597  -0.048   8.597  -0.008 -1.0320 -0.5528 -0.5104
11456SOL    HW238598  -0.034   8.576   0.153 -1.1323  0.1880 -0.4041
11458SOL     OW38599   9.942   1.945   0.233 -0.1114  0.6013 -0.2887
11458SOL    HW138600  10.025   1.890   0.237  1.4330  2.8888  0.3016
11458SOL    HW238601   9.950   2.012   0.159 -1.3396  0.9699 -0.1014
11459SOL     OW38602   2.658   6.751   2.893  0.9534  0.3813 -0.0926
11459SOL    HW138603   2.604   6.667   2.891  2.3145 -0.5001 -1.4780
11459SOL    HW238604   2.649   6.794   2.982 -0.6935 -0.6169  0.2539
11460SOL     OW38605   3.930   6.418   1.480  0.0760  0.0854  0.4454
11460SOL    HW138606   3.970   6.333   1.515  1.8392  0.6287 -0.1936
11460SOL    HW238607   3.836   6.427   1.513  0.2197 -1.6084  1.3543
11461SOL     OW38608   7.419   0.234   2.083 -0.4583 -1.0613  0.3036
11461SOL    HW138609   7.486   0.260   2.014  0.8335 -0.7812  1.6293
11461SOL    HW238610   7.348   0.305   2.089 -0.6460 -1.1529 -0.8065
11462SOL     OW38611   3.875   2.732   3.986  0.9657 -0.4969 -0.6293
11462SOL    HW138612   3.940   2.708   4.058  1.8467 -0.3977 -1.3686
11462SOL    HW238613   3.787   2.688   4.003  1.6438 -1.7763 -0.3432
11463SOL     OW38614   9.097   5.963   2.133 -0.1086 -0.0156  0.1757
11463SOL    HW138615   9.138   5.894   2.074  0.9479 -0.8644  1.8559
11463SOL    HW238616   9.169   6.012   2.182 -0.8223  2.6460 -1.3688
11464SOL     OW38617   7.971   2.119   3.572  0.0266  0.0959  0.1855
11464SOL    HW138618   8.068   2.101   3.555 -0.4354 -1.0497 -1.3957
11464SOL    HW238619   7.950   2.214   3.549  0.5266 -0.0002 -0.7120
11465SOL     OW38620   1.949   4.577   2.043  0.1077 -0.1641 -0.7312
11465SOL    HW138621   2.037   4.530   2.048  0.9242  1.3772 -0.3500
11465SOL    HW238622   1.878   4.519   2.083  1.3815 -0.3814  1.2785
11466SOL     OW38623   2.592   7.838   1.617  0.2035 -0.5827  0.3270
11466SOL    HW138624   2.537   7.855   1.535  0.1974 -1.3842  0.1662
11466SOL    HW238625   2.562   7.899   1.690 -0.1358 -0.2233 -0.1108
11467SOL     OW38626   1.701   5.677   3.973 -0.4871  0.0911 -0.3492
11467SOL    HW138627   1.617   5.680   3.919  0.3407 -0.8066 -1.7245
11467SOL    HW238628   1.722   5.583   3.999  0.7004  0.1495 -1.0199
11468SOL     OW38629   1.552   0.791   1.978  0.5057 -0.1462 -0.0966
11468SOL    HW138630   1.576   0.694   1.985  0.2732 -0.0847  1.9658
11468SOL    HW238631   1.463   0.806   2.021  0.9209  1.1059  0.3494
11469SOL     OW38632   1.498   6.168   2.110  0.3189 -0.0436  0.2094
11469SOL    HW138633   1.579   6.224   2.125  1.7171 -2.1747  0.8544
11469SOL    HW238634   1.416   6.224   2.119  1.6663  1.8625  0.8515
11472SOL     OW38635   2.426   8.231   1.696  0.1652 -0.2441 -0.2714
11472SOL    HW138636   2.369   8.219   1.614  0.1829  0.9925 -0.4618
11472SOL    HW238637   2.403   8.317   1.741 -0.7727 -1.5188  1.7709
11473SOL     OW38638   8.847   4.387   2.134 -0.2502 -0.5424  0.2624
11473SOL    HW138639   8.766   4.387   2.192 -0.8588  1.7042 -0.5721
11473SOL    HW238640   8.903   4.306   2.155 -1.0958 -0.4401  3.0647
11474SOL     OW38641   9.849   2.743   3.573 -0.5804  0.3058 -0.0147
11474SOL    HW138642   9.774   2.707   3.518 -1.5692  1.1650  0.7486
11474SOL    HW238643   9.877   2.832   3.538 -1.2010  0.8453  0.8517
11475SOL     OW38644   9.380   3.394   3.050  0.1256  0.3879  0.3305
11475SOL    HW138645   9.347   3.438   3.133  1.2303 -0.2055  1.0937
11475SOL    HW238646   9.474   3.361   3.064 -0.7792 -2.5193 -0.0855
11476SOL     OW38647   5.420   6.860   1.647 -0.4725  0.7321 -0.0248
11476SOL    HW138648   5.434   6.763   1.630 -0.3847  0.8062 -0.3641
11476SOL    HW238649   5.389   6.905   1.564  1.1058  1.3096 -0.3234
11477SOL     OW38650   2.347   1.244   0.501 -0.5747 -0.1547  0.0107
11477SOL    HW138651   2.298   1.312   0.448  0.1897  0.2422 -0.1934
11477SOL    HW238652   2.446   1.257   0.490 -0.4031 -0.1722  1.3938
11478SOL     OW38653   8.282   6.919   0.936 -0.1270 -0.2446 -0.4817
11478SOL    HW138654   8.317   6.880   0.851 -1.2689 -1.2210 -0.5139
11478SOL    HW238655   8.284   7.019   0.931  2.2081 -0.2729 -0.6587
11479SOL     OW38656   2.554   8.075   1.874 -0.7979 -0.1036  0.0642
11479SOL    HW138657   2.485   8.008   1.900 -0.0045 -0.9132  0.0998
11479SOL    HW238658   2.514   8.141   1.810 -1.1529 -1.4996 -1.1657
11481SOL     OW38659   4.541   9.382   0.611 -0.2208  0.6446  0.4448
11481SOL    HW138660   4.564   9.289   0.638  0.6024  0.8747  0.5577
11481SOL    HW238661   4.462   9.414   0.664 -0.1851  0.1996  0.7685
11482SOL     OW38662   3.087   6.359   3.963 -0.0876 -0.3077 -0.3777
11482SOL    HW138663   3.059   6.269   3.996  0.7544 -0.5848 -0.4049
11482SOL    HW238664   3.167   6.390   4.014 -0.5902  0.5961 -0.1138
11483SOL     OW38665   8.827   6.483   2.840  0.3461 -0.1327 -0.0060
11483SOL    HW138666   8.765   6.537   2.784  0.4672  0.4837  0.4423
11483SOL    HW238667   8.892   6.544   2.886  0.3024 -0.6296  0.7269
11484SOL     OW38668   7.623   2.200   1.477  0.0704  0.0566 -0.0523
11484SOL    HW138669   7.657   2.163   1.564 -1.3661  2.4756  1.6011
11484SOL    HW238670   7.528   2.172   1.464 -0.3537  1.3779  0.1667
11485SOL     OW38671   1.608   5.123   0.643  0.0018  0.6694  0.2450
11485SOL    HW138672   1.577   5.204   0.693  0.9442  0.7772  0.6626
11485SOL    HW238673   1.608   5.044   0.705  0.1223  0.5773  0.1267
11486SOL     OW38674   8.366   6.080   2.240 -0.2579  0.0274 -0.2661
11486SOL    HW138675   8.464   6.097   2.227 -0.4517  0.4641 -1.1559
11486SOL    HW238676   8.324   6.160   2.282 -0.8337  1.0968 -2.8303
11487SOL     OW38677   8.599   1.648   0.938 -0.3595  0.4246 -0.2924
11487SOL    HW138678   8.637   1.613   0.853 -1.3141 -0.6532 -0.2806
11487SOL    HW238679   8.633   1.594   1.015 -1.4267 -0.1546 -0.2239
11488SOL     OW38680   9.502   7.992   4.213 -0.1151  0.4595  0.3129
11488SOL    HW138681   9.456   8.066   4.261 -1.7375  0.8040 -1.6887
11488SOL    HW238682   9.437   7.946   4.153  1.2148 -1.6980  0.4772
11489SOL     OW38683   2.573   2.668   0.793 -0.2889  0.5519 -0.0346
11489SOL    HW138684   2.608   2.736   0.728 -0.8109  1.6130  0.7752
11489SOL    HW238685   2.607   2.689   0.884  1.1476 -1.4506 -0.0955
11490SOL     OW38686   1.108   9.214   3.007  1.3671  0.1133 -0.1937
11490SOL    HW138687   1.175   9.267   2.956  0.8350  1.7309  0.7550
11490SOL    HW238688   1.077   9.266   3.087 -2.5991  0.3145 -1.7726
11491SOL     OW38689   5.174   1.068   3.613  0.3773 -0.0057 -0.0192
11491SOL    HW138690   5.097   1.125   3.583  0.7096  0.6668  0.4039
11491SOL    HW238691   5.260   1.114   3.593  0.6265  0.0637  1.1770
11492SOL     OW38692   1.009   6.548   3.749  0.1323 -0.9611  0.3166
11492SOL    HW138693   0.953   6.477   3.792  0.0478 -1.9933 -1.4591
11492SOL    HW238694   0.968   6.576   3.662  1.1619 -0.0663  0.1025
11494SOL     OW38695   7.651   0.332   2.984  0.2579  0.3989  0.0277
11494SOL    HW138696   7.625   0.343   2.889 -1.6521  0.3223  0.5175
11494SOL    HW238697   7.620   0.411   3.037  0.9411  0.2507  0.6668
11495SOL     OW38698   0.680   9.278   2.349  0.3832 -0.2043 -0.3707
11495SOL    HW138699   0.598   9.221   2.349  0.4532 -0.3057 -0.5226
11495SOL    HW238700   0.677   9.341   2.272  1.1305 -1.1921 -1.2129
11496SOL     OW38701   8.317   4.351   1.967  0.1647  0.3713  0.1064
11496SOL    HW138702   8.414   4.346   1.990 -0.4734  0.1336  3.0271
11496SOL    HW238703   8.280   4.439   1.998 -1.1218 -0.6485  1.5274
11497SOL     OW38704   8.318   8.453   1.843 -0.0678 -0.2733 -0.1012
11497SOL    HW138705   8.302   8.392   1.766 -0.8215 -0.2871  0.0621
11497SOL    HW238706   8.277   8.542   1.824 -1.5548 -0.7295  0.8987
11498SOL     OW38707   4.879   4.298   0.382  0.1633  0.2235 -0.1195
11498SOL    HW138708   4.837   4.320   0.470 -0.3005 -2.5829  0.4184
11498SOL    HW238709   4.859   4.370   0.316 -1.0812  1.4427  1.5607
11499SOL     OW38710   8.053   4.928   3.555 -0.4348  0.5017 -0.0387
11499SOL    HW138711   8.141   4.882   3.566 -1.0172 -0.8697 -0.9121
11499SOL    HW238712   8.028   4.931   3.458 -2.2508 -0.8904  0.3528
11500SOL     OW38713   6.251   7.505   3.981  0.1013  0.1730 -0.0255
11500SOL    HW138714   6.280   7.433   4.044 -0.2286 -0.9342 -1.1280
11500SOL    HW238715   6.197   7.465   3.907  0.7609  1.4327 -1.1990
11501SOL     OW38716   3.430   0.174   0.671  0.0770 -0.7604 -0.1714
11501SOL    HW138717   3.361   0.193   0.601 -0.1316 -0.2786  0.1614
11501SOL    HW238718   3.465   0.081   0.658  0.2303 -0.5856 -1.0743
11504SOL     OW38719   7.522   9.365   3.239 -0.2729  0.0229 -0.3900
11504SOL    HW138720   7.585   9.437   3.211 -0.0871 -0.2837 -0.7611
11504SOL    HW238721   7.494   9.380   3.334  1.6730 -0.7580  0.3430
11505SOL     OW38722   6.905   9.046   3.066  0.3568  0.2764  0.2116
11505SOL    HW138723   7.000   9.036   3.095  1.0795  4.5199 -0.3998
11505SOL    HW238724   6.844   9.019   3.141  2.0828  0.8963  1.8788
11506SOL     OW38725   4.284   1.000   0.881  0.3514  0.1727  0.5310
11506SOL    HW138726   4.270   1.097   0.861 -0.1357  0.3590  1.7125
11506SOL    HW238727   4.201   0.949   0.857  0.9711 -0.1289 -1.0670
11507SOL     OW38728   5.752   9.944   1.795  0.1375 -0.2591  0.3584
11507SOL    HW138729   5.768  10.020   1.859 -0.8762  0.6874 -0.4990
11507SOL    HW238730   5.768   9.858   1.843 -0.6400  0.4308  1.9186
11508SOL     OW38731   9.503   9.682   2.507 -0.1347 -0.2163 -0.1657
11508SOL    HW138732   9.548   9.759   2.553  2.1888 -2.2268  1.0761
11508SOL    HW238733   9.485   9.706   2.411  1.6679  1.4407 -0.1193
11509SOL     OW38734   6.878   8.136   2.130  0.0637 -0.0634  0.2571
11509SOL    HW138735   6.944   8.125   2.055 -1.8366 -1.1132 -1.3349
11509SOL    HW238736   6.795   8.085   2.108 -0.7440  0.0417  2.8834
11510SOL     OW38737   7.026   7.892   3.174  0.1577 -0.3796  0.2352
11510SOL    HW138738   7.055   7.987   3.179 -0.8084 -0.0722  0.1587
11510SOL    HW238739   6.980   7.866   3.260 -1.2574 -0.2004 -0.4479
11511SOL     OW38740   9.987   9.620   0.686  0.3860 -0.5135  0.2428
11511SOL    HW138741  10.057   9.685   0.657  0.1606 -0.4158 -0.0806
11511SOL    HW238742   9.950   9.572   0.607 -0.0399 -0.4347  0.3902
11512SOL     OW38743   7.619   7.826   3.396  0.3244  0.4560 -0.6082
11512SOL    HW138744   7.575   7.788   3.477  0.3502 -1.7562 -1.6012
11512SOL    HW238745   7.634   7.754   3.329  1.4818  2.0085 -2.0730
11513SOL     OW38746   4.094   8.931   0.076 -0.5499 -0.0670  0.1132
11513SOL    HW138747   4.040   8.932   0.161 -0.4633  1.6908  0.1756
11513SOL    HW238748   4.175   8.989   0.088  0.6451 -1.5883 -0.4398
11514SOL     OW38749   5.345   9.859   3.081 -0.2630  0.0114  0.1386
11514SOL    HW138750   5.293   9.845   3.165 -0.4150  2.1827  0.4448
11514SOL    HW238751   5.432   9.904   3.102  0.2503 -0.5447 -0.7371
11515SOL     OW38752   8.416   1.833   1.598 -0.0159 -0.3919  0.2103
11515SOL    HW138753   8.350   1.879   1.539  1.1660 -1.3195 -1.8975
11515SOL    HW238754   8.509   1.857   1.569  0.5981 -2.9799 -0.0205
11516SOL     OW38755   0.105   2.386   1.198  0.4345  0.0835  0.1845
11516SOL    HW138756   0.104   2.350   1.105  2.5376  0.7147 -0.1085
11516SOL    HW238757   0.192   2.363   1.242 -0.7138 -0.5748  2.1493
11517SOL     OW38758   4.146   1.910   2.672  0.2555  0.2993  0.0461
11517SOL    HW138759   4.047   1.906   2.661  0.1434  0.2403  1.0084
11517SOL    HW238760   4.188   1.834   2.622 -0.1501  0.5407 -0.6692
11518SOL     OW38761   2.315   9.298   2.249  0.3674 -0.1165  0.1425
11518SOL    HW138762   2.395   9.247   2.217  0.4586  0.5254 -0.6756
11518SOL    HW238763   2.329   9.395   2.231  0.0962  0.1732  1.4876
11519SOL     OW38764   3.350   5.083   0.465 -0.2632  0.6837  0.3032
11519SOL    HW138765   3.369   5.164   0.519  0.1258  0.6350  0.2392
11519SOL    HW238766   3.410   5.008   0.494  2.7730  1.7733 -2.8749
11520SOL     OW38767   2.325   0.191   3.366 -0.2748 -0.3118 -0.1606
11520SOL    HW138768   2.303   0.094   3.359 -1.1036 -0.2029  0.8041
11520SOL    HW238769   2.268   0.243   3.302 -1.4464 -0.2374  0.9226
11521SOL     OW38770   3.612   6.764   2.284  0.2105  0.2476  0.1375
11521SOL    HW138771   3.664   6.849   2.283  1.5182 -0.5474 -1.3910
11521SOL    HW238772   3.515   6.784   2.270  0.9815  1.2284 -4.6687
11522SOL     OW38773   9.596   5.901   1.119  0.1589 -0.1014 -0.7654
11522SOL    HW138774   9.594   5.856   1.030  0.3986  0.7082 -1.1806
11522SOL    HW238775   9.518   5.870   1.173  0.5739 -1.3628 -0.8743
11523SOL     OW38776   3.687   4.756   2.437 -0.3598  0.4135  0.3312
11523SOL    HW138777   3.742   4.834   2.467 -1.5262  0.3846  2.6880
11523SOL    HW238778   3.748   4.680   2.413  0.6915  1.1522  0.6176
11524SOL     OW38779   2.055   6.302   0.952 -0.2345 -0.2431 -0.2791
11524SOL    HW138780   2.066   6.251   1.037  1.4930 -2.0737 -1.5645
11524SOL    HW238781   1.961   6.293   0.919 -0.6338 -0.3760  0.8528
11525SOL     OW38782   3.794   7.782   0.314  0.3573 -0.1691 -0.4043
11525SOL    HW138783   3.842   7.815   0.396 -2.3131  0.8007  0.8355
11525SOL    HW238784   3.853   7.791   0.235  1.6563  2.5688  0.8004
11526SOL     OW38785   8.037   6.136   4.179  0.1787  0.1159 -0.2217
11526SOL    HW138786   8.026   6.041   4.152 -0.7339  0.4437 -1.0466
11526SOL    HW238787   7.947   6.180   4.181  0.6005  0.9720  0.0967
11527SOL     OW38788   9.966   4.787   1.858 -0.2489  0.3153  0.0300
11527SOL    HW138789   9.992   4.692   1.841  0.0761  0.0758  1.7628
11527SOL    HW238790  10.044   4.846   1.838  0.0152  0.0782  0.3471
11528SOL     OW38791   1.320   4.719   2.670  0.0123 -0.5772 -1.0744
11528SOL    HW138792   1.315   4.621   2.687  0.8234 -0.4550 -0.0395
11528SOL    HW238793   1.262   4.767   2.735  0.5182 -0.3062 -0.8158
11530SOL     OW38794   4.368   2.293   4.229  0.0941 -0.0708  0.2215
11530SOL    HW138795   4.274   2.263   4.247  1.0692 -2.9274  0.8249
11530SOL    HW238796   4.389   2.372   4.286 -1.7699  0.2771  0.4744
11531SOL     OW38797   8.474   1.633   3.648  0.9680  0.4068  0.4110
11531SOL    HW138798   8.375   1.629   3.631  0.7612  2.8368  0.8296
11531SOL    HW238799   8.498   1.568   3.720 -0.3792  0.0539  0.5541
11532SOL     OW38800   9.843   4.802   4.392 -0.1533 -0.2608  0.1269
11532SOL    HW138801   9.866   4.713   4.431 -0.5514 -1.8379 -3.0176
11532SOL    HW238802   9.927   4.855   4.379  0.2953 -0.8812  0.4679
11533SOL     OW38803   4.284   8.158   2.875  0.0261  0.0795 -0.0042
11533SOL    HW138804   4.381   8.152   2.852 -0.0406 -1.1468 -0.0148
11533SOL    HW238805   4.239   8.226   2.818  1.1832  1.7540  1.0397
11534SOL     OW38806   8.967   1.269   3.463 -0.6506  0.2734 -0.0939
11534SOL    HW138807   8.908   1.333   3.514 -0.9473 -0.4245  0.4478
11534SOL    HW238808   9.008   1.204   3.527 -0.9187 -0.5234 -0.7289
11535SOL     OW38809   3.349   9.322   1.986 -0.3480 -0.3055 -0.0733
11535SOL    HW138810   3.273   9.324   2.051  0.8961 -1.1764  1.4342
11535SOL    HW238811   3.368   9.227   1.960 -0.9165  0.0445 -1.8171
11536SOL     OW38812   0.421   7.841   1.177 -0.1793 -0.3390  0.4822
11536SOL    HW138813   0.493   7.820   1.243 -1.7397 -1.7227  1.7488
11536SOL    HW238814   0.377   7.927   1.202  1.3788  0.8284 -0.6327
11537SOL     OW38815   7.689   7.637   3.175 -0.1453  0.0563 -0.1455
11537SOL    HW138816   7.765   7.586   3.216 -0.2855  0.0771  0.1357
11537SOL    HW238817   7.606   7.581   3.176  0.1528 -0.4554 -1.5920
11538SOL     OW38818   5.167   7.786   1.706 -0.2209 -0.2378 -0.4335
11538SOL    HW138819   5.150   7.688   1.715 -0.0486 -0.2826 -0.5886
11538SOL    HW238820   5.228   7.817   1.779  0.4709 -0.4300 -0.9287
11539SOL     OW38821   9.827   5.303   2.298  0.2623 -0.1815  0.2659
11539SOL    HW138822   9.798   5.393   2.268  0.0320 -0.7558 -1.2764
11539SOL    HW238823   9.785   5.282   2.386 -1.4418  0.3053 -0.4157
11540SOL     OW38824   0.908   3.655   1.671 -0.3378  0.0643 -0.2230
11540SOL    HW138825   0.900   3.562   1.634  0.5271 -0.2045  0.2472
11540SOL    HW238826   0.948   3.651   1.763  0.8817  0.9887 -0.6976
11541SOL     OW38827   0.409   4.439   1.207 -0.1562  0.0028 -0.2935
11541SOL    HW138828   0.318   4.440   1.248  0.2083 -3.4260  0.7921
11541SOL    HW238829   0.464   4.513   1.245 -1.6984  0.4908  0.9995
11542SOL     OW38830   8.309   7.477   0.622 -0.3917  0.1012 -0.6842
11542SOL    HW138831   8.390   7.443   0.576 -0.2155  1.1628 -1.1637
11542SOL    HW238832   8.335   7.541   0.694 -0.6974 -1.1026  0.5388
11543SOL     OW38833   4.775   3.122   1.364  0.4566  0.4037  0.0990
11543SOL    HW138834   4.792   3.192   1.433  0.1007 -0.2345  0.8334
11543SOL    HW238835   4.745   3.166   1.279 -1.1501  1.0567  0.9821
11544SOL     OW38836   0.923   3.621   2.720 -0.4241  0.3033 -0.2453
11544SOL    HW138837   0.878   3.584   2.801  0.6605 -0.2017  0.1380
11544SOL    HW238838   0.941   3.546   2.656  0.2349  0.4443 -0.2226
11545SOL     OW38839   0.846   1.346   4.210 -0.1722 -0.1205  0.5207
11545SOL    HW138840   0.863   1.306   4.120  0.3088 -0.6476  0.8433
11545SOL    HW238841   0.771   1.297   4.254  0.4252 -0.6717  0.9211
11546SOL     OW38842   4.291   2.395   2.399  0.0848 -0.2893 -0.4226
11546SOL    HW138843   4.200   2.395   2.358 -0.9751 -0.4448  1.8187
11546SOL    HW238844   4.356   2.352   2.337 -1.6086 -1.2163 -1.5873
11547SOL     OW38845   3.316   4.840   0.178 -0.4611  0.3520 -0.3912
11547SOL    HW138846   3.404   4.801   0.152 -1.8847 -2.4314 -1.1757
11547SOL    HW238847   3.327   4.939   0.194  2.5004  0.2874 -1.6982
11548SOL     OW38848   1.820   0.328   2.325  0.5284 -0.6214  0.0873
11548SOL    HW138849   1.725   0.345   2.296  0.5559 -0.8612 -0.1492
11548SOL    HW238850   1.820   0.271   2.407  0.4789 -1.1955 -0.3038
11549SOL     OW38851   3.176   9.422   1.510  0.0575  0.3656  0.2689
11549SOL    HW138852   3.135   9.450   1.597  1.0755 -0.2136  0.9495
11549SOL    HW238853   3.138   9.478   1.436 -2.3369 -0.5299  0.7844
11551SOL     OW38854   7.532   0.983   0.860 -0.4316 -0.1632 -0.1141
11551SOL    HW138855   7.565   0.988   0.954  0.6547 -1.2606 -0.4245
11551SOL    HW238856   7.495   1.072   0.833 -1.2061  0.0300  1.5036
11552SOL     OW38857   1.306   7.831   4.349  0.6882  0.7585 -0.4420
11552SOL    HW138858   1.354   7.919   4.354 -1.6860  1.9597  1.8892
11552SOL    HW238859   1.367   7.758   4.380  2.1070  1.8099 -0.7135
11553SOL     OW38860   0.173   5.207   4.108  0.5157  0.4118  0.0176
11553SOL    HW138861   0.269   5.222   4.131  0.7658 -0.3761 -0.4889
11553SOL    HW238862   0.166   5.133   4.042 -0.3891  0.9524 -0.5018
11554SOL     OW38863   7.725   8.416   4.440 -0.6388 -0.1063 -0.1890
11554SOL    HW138864   7.725   8.482   4.515  0.2985  0.4898 -0.6979
11554SOL    HW238865   7.632   8.404   4.406 -0.8120  0.9946 -0.1238
11555SOL     OW38866   7.886   1.830   0.544  0.5627 -0.0676 -0.1340
11555SOL    HW138867   7.883   1.850   0.642  0.6749 -1.7217  0.2113
11555SOL    HW238868   7.799   1.792   0.514  1.9794 -3.8605  0.2968
11556SOL     OW38869   3.165   2.303   2.832  0.4391 -0.3376  0.4910
11556SOL    HW138870   3.190   2.254   2.916  1.0963  1.4463  1.3843
11556SOL    HW238871   3.110   2.244   2.773 -1.0687 -1.2495  2.7319
11557SOL     OW38872   1.863   8.268   0.887  0.0820  0.3790  0.6375
11557SOL    HW138873   1.873   8.170   0.900 -1.3520  0.2712  0.9845
11557SOL    HW238874   1.935   8.300   0.825  0.5937 -0.8676  0.5615
11558SOL     OW38875   4.491   8.256   2.641  0.2776 -0.0343 -0.1032
11558SOL    HW138876   4.533   8.204   2.716 -0.3484 -0.8433 -0.3108
11558SOL    HW238877   4.517   8.215   2.554 -2.3002 -1.6273 -0.1932
11561SOL     OW38878   0.521   1.116   3.667  0.3400 -0.3109 -0.0336
11561SOL    HW138879   0.471   1.030   3.676 -0.5862  0.2564  0.3609
11561SOL    HW238880   0.477   1.173   3.597 -0.3633  0.7328  1.2321
11563SOL     OW38881   9.276   8.923   4.130 -0.6548  0.1840  0.0705
11563SOL    HW138882   9.303   9.002   4.075 -0.6086 -0.3349 -0.6588
11563SOL    HW238883   9.266   8.951   4.226  2.5600  0.3904  0.4099
11564SOL     OW38884   2.287   3.309   4.397 -1.0405  0.6325  0.1441
11564SOL    HW138885   2.382   3.313   4.366 -1.0309 -0.9177 -0.0606
11564SOL    HW238886   2.284   3.298   4.496 -0.9994  0.3361  0.1124
11565SOL     OW38887   7.730   5.448   0.476 -0.0279  0.7525  0.5192
11565SOL    HW138888   7.691   5.393   0.550 -0.3557 -0.2079 -0.3427
11565SOL    HW238889   7.793   5.515   0.513  1.9537 -1.5445  1.4732
11566SOL     OW38890   7.483   9.101   0.435 -0.2206  0.1639  0.3575
11566SOL    HW138891   7.562   9.115   0.377 -1.0390 -1.0016 -1.0745
11566SOL    HW238892   7.506   9.123   0.530  1.3731  1.2232 -0.2719
11569SOL     OW38893   8.168   3.687   0.927  0.0198 -0.1479 -0.1495
11569SOL    HW138894   8.116   3.726   0.851  0.0497  1.2985  0.5472
11569SOL    HW238895   8.233   3.755   0.962 -0.7755 -0.3688  1.8727
11571SOL     OW38896   9.838   3.836   3.257  0.5817  0.3155 -0.3933
11571SOL    HW138897   9.898   3.804   3.330  0.8805  1.3446 -0.1846
11571SOL    HW238898   9.750   3.790   3.264  0.7908  0.0157  0.2915
11572SOL     OW38899   4.610   5.236   1.346 -0.6045  0.2334  0.2006
11572SOL    HW138900   4.707   5.248   1.365 -0.5965 -1.1256  1.0491
11572SOL    HW238901   4.567   5.326   1.337  0.8056  0.8454 -0.6244
11573SOL     OW38902   0.839   4.063   3.576  0.0937 -0.2207 -0.2175
11573SOL    HW138903   0.829   4.031   3.482 -0.4681  0.2577 -0.3242
11573SOL    HW238904   0.890   4.149   3.577 -0.2296 -0.0283 -0.1216
11574SOL     OW38905   4.367   9.422   2.101  0.2719  0.2872  0.3054
11574SOL    HW138906   4.297   9.437   2.030  0.0140 -1.0566  0.2718
11574SOL    HW238907   4.369   9.501   2.162  1.1661  1.8983 -1.7476
11575SOL     OW38908   9.795   0.334   0.790  0.1062 -0.2697  0.1320
11575SOL    HW138909   9.854   0.415   0.795  0.3575 -0.4133 -0.3837
11575SOL    HW238910   9.700   0.363   0.779  0.1733 -0.0412  0.1442
11577SOL     OW38911   6.747   8.127   4.294 -0.5450 -0.0944 -0.3876
11577SOL    HW138912   6.721   8.184   4.216 -3.8007 -0.1672  0.6037
11577SOL    HW238913   6.765   8.034   4.262  0.5608  0.4468 -1.3804
11578SOL     OW38914   3.004   3.374   2.352  0.5819  0.0721 -0.0380
11578SOL    HW138915   2.942   3.296   2.344  2.1682 -1.2469  0.2289
11578SOL    HW238916   3.065   3.376   2.273  1.3987  0.2892  0.5946
11579SOL     OW38917   4.555   3.658   0.459 -0.0750  0.6343  0.1354
11579SOL    HW138918   4.603   3.735   0.501 -0.1751  0.8853 -0.2123
11579SOL    HW238919   4.502   3.610   0.530  3.8305 -2.0806  1.3666
11581SOL     OW38920   1.615   6.095   2.928  0.1049  0.4774  0.0951
11581SOL    HW138921   1.541   6.154   2.959 -0.7015 -1.2998  1.6483
11581SOL    HW238922   1.578   6.006   2.902  1.3505  0.4794 -1.8660
11583SOL     OW38923   2.807   6.928   3.671 -0.3582 -0.1084 -0.2922
11583SOL    HW138924   2.893   6.882   3.692 -1.1914 -1.0914  1.0244
11583SOL    HW238925   2.805   7.018   3.716  0.0028 -0.0491 -0.3921
11584SOL     OW38926   5.980   8.095   2.811  0.2207  0.2537  0.2315
11584SOL    HW138927   5.962   8.158   2.736 -0.0020 -1.3478 -1.0781
11584SOL    HW238928   6.079   8.089   2.826  0.2547  0.7413  0.2189
11586SOL     OW38929   7.048   7.582   2.107  0.0255 -0.2184 -0.6243
11586SOL    HW138930   7.037   7.646   2.182 -0.3992 -0.3534 -0.5658
11586SOL    HW238931   7.067   7.491   2.143  1.1684 -0.0166 -0.7259
11587SOL     OW38932   3.743   2.759   1.824 -0.2921 -0.5093  0.3757
11587SOL    HW138933   3.750   2.751   1.923  0.4228  1.3723  0.4935
11587SOL    HW238934   3.835   2.767   1.785 -0.5113 -2.2371 -0.5453
11588SOL     OW38935   3.701   3.602   1.269  0.6652 -0.2115  0.1251
11588SOL    HW138936   3.756   3.565   1.343  2.5744  1.0966 -0.6043
11588SOL    HW238937   3.643   3.530   1.230 -0.4554 -0.8906  2.9266
11589SOL     OW38938   9.881   5.827   1.055 -0.0296  0.0199  0.4196
11589SOL    HW138939   9.930   5.894   1.001  1.1393  1.2508  2.9099
11589SOL    HW238940   9.785   5.855   1.065 -0.0741  0.1491 -0.3715
11590SOL     OW38941   0.181   7.717   1.921  0.5288  0.0336 -0.5204
11590SOL    HW138942   0.233   7.717   2.007 -0.4232 -1.9821  0.0915
11590SOL    HW238943   0.183   7.808   1.881  1.2537  0.9347  1.4910
11591SOL     OW38944   0.166   9.264   2.813  0.3323  0.1186  0.5899
11591SOL    HW138945   0.109   9.186   2.837  0.5848 -0.4171 -0.5235
11591SOL    HW238946   0.108   9.344   2.796 -0.1885 -0.6554 -1.4491
11592SOL     OW38947   9.424   7.476   1.772 -0.1634 -0.3809  0.4311
11592SOL    HW138948   9.368   7.469   1.854 -1.8764 -1.2980 -0.7908
11592SOL    HW238949   9.476   7.392   1.759  1.0338  0.2186  1.2011
11593SOL     OW38950   8.756   6.371   1.564 -0.0475  0.0318 -0.7438
11593SOL    HW138951   8.720   6.285   1.601  0.1470  0.2831  0.0504
11593SOL    HW238952   8.733   6.446   1.627  2.0918  0.1535 -0.0614
11594SOL     OW38953   4.414   7.592   1.284  0.3079  0.5406 -0.1120
11594SOL    HW138954   4.490   7.645   1.321 -0.3065 -0.3878  2.5991
11594SOL    HW238955   4.442   7.497   1.270  0.3424  0.7386 -1.4677
11595SOL     OW38956   4.251   2.769   0.214  0.6698 -0.4506  0.1126
11595SOL    HW138957   4.260   2.868   0.228  1.2425 -0.2362 -1.7159
11595SOL    HW238958   4.171   2.736   0.265  0.1282  1.0532  0.2726
11596SOL     OW38959   7.557   3.681   0.637  0.4320  0.1507  0.7794
11596SOL    HW138960   7.552   3.590   0.677 -0.1768  0.2509  0.9265
11596SOL    HW238961   7.652   3.701   0.613  0.5865 -0.4716  0.8612
11597SOL     OW38962   8.414   0.700   2.438  0.0112 -0.2620 -0.1910
11597SOL    HW138963   8.497   0.755   2.449 -0.5910  0.5926  0.1548
11597SOL    HW238964   8.439   0.604   2.426  1.0701  0.0553 -0.6090
11598SOL     OW38965   3.701   9.539   0.503 -0.4101 -0.4822  0.0824
11598SOL    HW138966   3.667   9.448   0.526  1.1640 -1.2248 -0.5146
11598SOL    HW238967   3.738   9.539   0.410  3.0448 -0.2267  1.3850
11599SOL     OW38968   2.516   0.901   2.350  0.4758  0.3905 -0.1938
11599SOL    HW138969   2.547   0.929   2.259  0.5688  0.3466 -0.1755
11599SOL    HW238970   2.587   0.847   2.394  0.1068 -0.2938 -0.4220
11600SOL     OW38971   1.627   3.162   0.090  0.0846  0.3879 -0.1837
11600SOL    HW138972   1.598   3.067   0.078 -0.5774  0.2816  2.0109
11600SOL    HW238973   1.687   3.169   0.170 -2.5438  2.2944  1.7240
11601SOL     OW38974   3.548   1.825   2.619  1.0187 -0.3925  0.4647
11601SOL    HW138975   3.489   1.752   2.652 -0.8416 -0.1618 -2.1907
11601SOL    HW238976   3.495   1.910   2.614  2.4960  0.5807  1.1833
11602SOL     OW38977   3.685   8.168   0.524  0.7544  0.2265 -0.3013
11602SOL    HW138978   3.670   8.215   0.610 -0.2527 -1.7087  0.5990
11602SOL    HW238979   3.745   8.223   0.466  0.1729  2.2584  0.9966
11603SOL     OW38980   8.453   0.184   4.273 -0.3983 -0.3268 -0.0998
11603SOL    HW138981   8.524   0.117   4.252 -0.3655  0.2434 -1.9700
11603SOL    HW238982   8.491   0.255   4.332  0.4480 -0.3125 -0.6527
11605SOL     OW38983   3.182   5.506   0.559  0.4942 -0.4245 -0.6123
11605SOL    HW138984   3.212   5.600   0.576  0.9703 -0.7914  0.6512
11605SOL    HW238985   3.097   5.489   0.609  1.0816 -1.0503  0.1706
11606SOL     OW38986   8.354   6.481   1.867 -0.1038  0.0229  0.2383
11606SOL    HW138987   8.354   6.381   1.856 -0.2315  0.0705 -0.2121
11606SOL    HW238988   8.438   6.518   1.830 -0.1104  0.0945  0.2959
11607SOL     OW38989   2.895   3.468   1.360  0.2302  0.3990 -0.6347
11607SOL    HW138990   2.812   3.413   1.363  0.6033 -0.1794 -0.7405
11607SOL    HW238991   2.885   3.548   1.419  0.1038 -0.3839  0.4207
11608SOL     OW38992   1.342   1.521   1.818 -0.0966  0.1854  1.1400
11608SOL    HW138993   1.438   1.504   1.842 -0.3131  0.3813  2.1771
11608SOL    HW238994   1.321   1.475   1.732  0.3523 -1.6617  1.9844
11609SOL     OW38995   9.504   0.864   0.834  0.5432  0.3593  0.1659
11609SOL    HW138996   9.529   0.935   0.901 -1.1603  0.5390  0.6546
11609SOL    HW238997   9.483   0.907   0.746  2.5562  0.1455 -0.4317
11610SOL     OW38998   5.554   0.462   1.900  0.3582  0.0544  0.7028
11610SOL    HW138999   5.522   0.536   1.840  0.9641 -0.2956 -0.0665
11610SOL    HW239000   5.481   0.395   1.913  0.1585  0.2326  0.5027
11613SOL     OW39001   9.399   3.233   0.419 -0.8927  0.2527 -0.7033
11613SOL    HW139002   9.417   3.324   0.384  1.4432 -0.1280 -0.5649
11613SOL    HW239003   9.384   3.237   0.518 -1.3011  0.5407 -0.7770
11615SOL     OW39004   0.540   1.614   4.438  0.2792  0.4593  0.1613
11615SOL    HW139005   0.629   1.570   4.437  0.6849  1.2505  1.3995
11615SOL    HW239006   0.511   1.632   4.343  1.9797  1.3183 -0.2114
11616SOL     OW39007   9.765   6.470   2.006  0.4963  0.1512 -0.0079
11616SOL    HW139008   9.734   6.486   2.100 -0.4379  2.1796 -0.6210
11616SOL    HW239009   9.771   6.372   1.989  0.3065 -0.2467  2.0459
11617SOL     OW39010   7.178   9.101   3.151 -0.0951 -0.5151  0.6345
11617SOL    HW139011   7.138   9.163   3.219  0.9543 -0.5832  1.3265
11617SOL    HW239012   7.216   9.155   3.076  0.3136 -0.3512  0.9590
11618SOL     OW39013   8.428   8.042   1.081  0.1758 -0.5767  0.0388
11618SOL    HW139014   8.435   8.130   1.128 -0.9818 -0.8851  0.7970
11618SOL    HW239015   8.503   8.034   1.015 -0.9989  1.9569 -1.6768
11619SOL     OW39016   9.936   5.279   0.392 -0.6774  0.2819  0.6130
11619SOL    HW139017   9.928   5.371   0.355  0.0908 -0.1853 -0.7264
11619SOL    HW239018  10.016   5.273   0.452 -0.8218  0.5221  0.8305
11620SOL     OW39019   7.185   8.551   3.428 -0.0328  0.4874  0.3871
11620SOL    HW139020   7.276   8.561   3.469 -0.2975  0.6735  0.9436
11620SOL    HW239021   7.162   8.635   3.378 -0.2739  0.7951  1.0137
11621SOL     OW39022   6.894   7.637   3.429 -0.0330  0.2699 -0.6133
11621SOL    HW139023   6.910   7.568   3.500 -0.8368  0.3993 -0.3005
11621SOL    HW239024   6.868   7.723   3.471 -0.7202  0.2907 -1.0680
11622SOL     OW39025   4.626   4.876   1.172 -0.0826 -0.1365 -0.7534
11622SOL    HW139026   4.632   4.880   1.272 -0.6083 -0.9530 -0.6896
11622SOL    HW239027   4.532   4.892   1.143  0.0176 -0.1795 -1.1061
11624SOL     OW39028   1.897   1.286   2.247 -0.0591 -0.1416 -0.0533
11624SOL    HW139029   1.968   1.306   2.180  0.3271 -0.6923  0.1875
11624SOL    HW239030   1.850   1.370   2.272  0.7620  0.2846  0.0698
11626SOL     OW39031   2.312   6.020   0.370  0.5162  0.2671  0.4697
11626SOL    HW139032   2.266   5.941   0.328 -0.0557  1.4981 -1.2831
11626SOL    HW239033   2.411   6.003   0.374  0.3605 -0.6813  0.4485
11629SOL     OW39034   0.565   3.513   0.084  0.5079  0.1360 -0.1441
11629SOL    HW139035   0.592   3.529  -0.011 -1.3424  0.3214 -0.6581
11629SOL    HW239036   0.471   3.544   0.098  0.5806 -0.3622  1.6246
11631SOL     OW39037   0.875   3.878   0.255 -0.5357  0.1036  0.0803
11631SOL    HW139038   0.798   3.816   0.241 -0.9221  0.5172  0.3832
11631SOL    HW239039   0.956   3.841   0.209 -0.9972 -0.1648 -0.5231
11632SOL     OW39040   8.835   9.311   3.687 -0.0615  0.3175 -0.3229
11632SOL    HW139041   8.808   9.407   3.697 -1.2135 -0.1157  0.8664
11632SOL    HW239042   8.934   9.303   3.700 -0.1295  1.1860  0.8824
11633SOL     OW39043   3.895   7.731   2.608 -0.6252  0.4604  0.2275
11633SOL    HW139044   3.841   7.663   2.557  1.2808 -0.7457 -0.2323
11633SOL    HW239045   3.967   7.767   2.549  0.4971  0.3522  1.5072
11634SOL     OW39046   8.466   6.456   2.230  0.0478  0.5312 -0.2601
11634SOL    HW139047   8.374   6.480   2.199 -0.0251 -0.5218 -0.8846
11634SOL    HW239048   8.460   6.382   2.297  0.5947 -1.4795 -2.3620
11635SOL     OW39049   9.845   8.262   0.354 -0.3659 -0.0147  0.2360
11635SOL    HW139050   9.752   8.299   0.359 -0.7087 -0.8607  0.1023
11635SOL    HW239051   9.884   8.257   0.446 -1.5245 -2.3878  0.6330
11637SOL     OW39052   0.783   3.151   0.863  0.0052  0.3361  0.1924
11637SOL    HW139053   0.691   3.175   0.833  0.1889 -0.4182 -0.9945
11637SOL    HW239054   0.832   3.233   0.890 -1.0983  0.7132  1.0788
11638SOL     OW39055   7.725   4.245   0.652 -0.4516  0.0177 -0.4698
11638SOL    HW139056   7.676   4.332   0.653 -0.7443 -0.0648 -2.8855
11638SOL    HW239057   7.659   4.170   0.645 -0.1204 -0.2702 -0.5059
11639SOL     OW39058   0.581   9.388   2.709  0.1656 -0.1909 -0.5518
11639SOL    HW139059   0.505   9.344   2.661  1.0319  0.1266 -2.2453
11639SOL    HW239060   0.666   9.340   2.689  0.2750 -1.3210  2.3536
11640SOL     OW39061   8.850   1.807   2.394  0.1446 -0.1854 -0.6548
11640SOL    HW139062   8.775   1.749   2.426  1.3219 -0.6765  1.2841
11640SOL    HW239063   8.849   1.810   2.294 -2.0061 -0.7740 -0.6725
11641SOL     OW39064   8.308   7.483   4.213 -0.5349 -0.7374 -0.4136
11641SOL    HW139065   8.306   7.383   4.210  1.6246 -0.7854 -1.6102
11641SOL    HW239066   8.338   7.518   4.125  0.6451  0.8817  0.6094
11642SOL     OW39067   3.296   0.697   3.136 -0.0349  0.9187  0.4982
11642SOL    HW139068   3.338   0.786   3.122 -0.0845  0.4579 -3.2101
11642SOL    HW239069   3.339   0.630   3.075 -1.3285 -1.1609  1.7984
11643SOL     OW39070   7.913   6.245   3.832 -0.1925 -0.1632  0.9320
11643SOL    HW139071   7.997   6.265   3.882  0.1463  1.0500 -0.1017
11643SOL    HW239072   7.839   6.304   3.864  0.0453  0.6719 -0.0237
11644SOL     OW39073   9.305   9.291   1.360  0.4139 -0.3728  0.0954
11644SOL    HW139074   9.323   9.370   1.419  0.9578 -0.2070 -0.2905
11644SOL    HW239075   9.385   9.231   1.360  0.5006 -0.2665 -0.6289
11645SOL     OW39076   2.447   0.152   2.548 -0.1757 -0.4406 -0.4757
11645SOL    HW139077   2.488   0.157   2.457  1.0497  0.8049  0.1232
11645SOL    HW239078   2.348   0.162   2.540  0.0903  1.7666 -1.5167
11646SOL     OW39079   4.259   2.239   2.844  0.4283  0.7706 -0.5221
11646SOL    HW139080   4.331   2.214   2.909  0.2365  0.0619 -0.5775
11646SOL    HW239081   4.300   2.289   2.767  0.6473  1.6517  0.1534
11647SOL     OW39082   9.749   3.651   2.329 -0.4484  0.1480 -0.1102
11647SOL    HW139083   9.681   3.582   2.307  0.6687 -1.2914  0.8997
11647SOL    HW239084   9.840   3.617   2.306  0.1715  1.0264  1.0030
11648SOL     OW39085   8.582   4.771   3.661  0.0258 -0.1269  0.0574
11648SOL    HW139086   8.562   4.717   3.579 -0.1007  0.0435 -0.0235
11648SOL    HW239087   8.558   4.866   3.646 -1.0029 -0.2802  0.6589
11649SOL     OW39088   4.315   9.959   2.707 -0.3766 -0.1575  0.2308
11649SOL    HW139089   4.223   9.970   2.671 -0.8606  0.1130  1.5145
11649SOL    HW239090   4.314   9.973   2.806  1.2168  0.8383  0.1275
11651SOL     OW39091   3.470   6.996   0.838  0.2597 -0.0644  0.2134
11651SOL    HW139092   3.476   6.900   0.864  1.3117  0.0795  0.5212
11651SOL    HW239093   3.409   7.005   0.759 -0.7071 -0.8389  0.8657
11652SOL     OW39094   5.540   9.867   3.353  0.1797 -0.1590  0.4619
11652SOL    HW139095   5.453   9.826   3.383  0.8231 -0.6961  1.6601
11652SOL    HW239096   5.616   9.812   3.389  1.0014 -0.4309 -1.6622
11653SOL     OW39097   2.913   9.108   1.545 -0.1273 -0.3053  0.8205
11653SOL    HW139098   2.819   9.140   1.552 -0.5166 -0.6717 -1.9906
11653SOL    HW239099   2.976   9.182   1.571 -1.1414  0.7361  0.3497
11654SOL     OW39100   4.828   3.398   3.037  0.1464  0.2013 -0.4049
11654SOL    HW139101   4.731   3.399   3.059 -0.1026 -0.9783 -1.4176
11654SOL    HW239102   4.849   3.472   2.973 -0.2263 -0.0433 -0.8083
11655SOL     OW39103   6.444   7.756   2.633  0.2395  0.2855 -0.0009
11655SOL    HW139104   6.371   7.763   2.701 -1.3744  1.2927 -1.7814
11655SOL    HW239105   6.528   7.797   2.669 -0.4989  0.4659  1.5262
11657SOL     OW39106   3.204   4.637   1.619  0.2343  0.1248  0.2847
11657SOL    HW139107   3.285   4.696   1.616 -0.9499  1.7554 -0.7233
11657SOL    HW239108   3.194   4.590   1.531 -0.6122  0.8975 -0.0349
11658SOL     OW39109   0.864   6.086   2.232  0.0956  0.4547  0.3672
11658SOL    HW139110   0.809   6.018   2.184  0.7077  0.5901 -0.5166
11658SOL    HW239111   0.886   6.162   2.170  0.5253  0.8344  0.9734
11659SOL     OW39112   5.814   0.141   3.569 -0.0114  0.3316  0.1720
11659SOL    HW139113   5.902   0.098   3.587 -0.4413 -0.9135 -0.6335
11659SOL    HW239114   5.806   0.224   3.623  1.5877  0.3715  0.3751
11661SOL     OW39115   2.060   2.009   3.388 -0.9396  0.2375  0.0011
11661SOL    HW139116   2.142   2.025   3.444 -1.1103  1.3898 -0.0670
11661SOL    HW239117   2.006   1.936   3.429 -1.4481  1.5757  1.7905
11662SOL     OW39118   4.682   6.659   1.655  0.2812  0.2765 -0.3188
11662SOL    HW139119   4.769   6.672   1.703  0.3587  1.4348 -0.7622
11662SOL    HW239120   4.699   6.631   1.561  0.1730  0.0602 -0.2732
11665SOL     OW39121   8.258   0.962   2.532 -0.1875  0.3883  0.7860
11665SOL    HW139122   8.261   0.954   2.632 -1.0989  1.0284  0.8808
11665SOL    HW239123   8.205   0.887   2.495  1.1809 -0.5323  0.6765
11666SOL     OW39124   2.982   3.486   3.175 -0.0279 -0.2405 -0.0571
11666SOL    HW139125   2.995   3.525   3.266  0.2446  0.3478 -0.3472
11666SOL    HW239126   2.888   3.503   3.144  0.4911  1.4502 -0.7719
11668SOL     OW39127   6.600   8.690   3.709  0.6111  0.0452 -0.7057
11668SOL    HW139128   6.518   8.712   3.655 -0.4094 -1.9082 -0.0238
11668SOL    HW239129   6.630   8.771   3.759 -1.3109  0.6413 -0.4673
11669SOL     OW39130   3.724   0.965   1.032  0.2807  0.1677 -0.3624
11669SOL    HW139131   3.804   1.011   0.993 -0.8617 -0.5266 -3.6255
11669SOL    HW239132   3.744   0.868   1.043  0.2144  0.1624 -0.2881
11670SOL     OW39133   1.632   3.429   0.905 -0.6200 -0.3228  0.3202
11670SOL    HW139134   1.627   3.519   0.860  0.2031 -1.2845 -1.7296
11670SOL    HW239135   1.548   3.414   0.957 -1.0088  1.3880  0.2435
11672SOL     OW39136   3.798   1.014   2.926 -0.5119 -0.0049  0.0472
11672SOL    HW139137   3.759   0.945   2.987  0.8098 -0.3177  0.5629
11672SOL    HW239138   3.868   0.972   2.868 -0.9110  0.5468 -0.8625
11673SOL     OW39139   2.377   3.294   0.526  0.4176 -0.3909  0.0540
11673SOL    HW139140   2.406   3.384   0.561 -1.4685  0.8237 -1.3758
11673SOL    HW239141   2.452   3.253   0.474  0.0716  2.1642 -2.6177
11674SOL     OW39142   7.355   0.597   4.184  0.2331  0.3851 -0.1109
11674SOL    HW139143   7.369   0.628   4.090  2.8356 -1.1347 -0.2601
11674SOL    HW239144   7.422   0.641   4.244 -0.0411 -0.2787  0.6871
11675SOL     OW39145   9.417   2.458   2.081  0.0295 -0.1868 -0.3368
11675SOL    HW139146   9.440   2.427   2.173 -0.2165  0.8278  0.0721
11675SOL    HW239147   9.321   2.436   2.062 -0.6350  1.7626  0.5870
11676SOL     OW39148   3.878   3.598   3.576 -0.2517  0.7900  0.2358
11676SOL    HW139149   3.805   3.650   3.531 -2.1219 -0.5287  1.6655
11676SOL    HW239150   3.966   3.623   3.536 -1.6071  1.4171 -2.4674
11677SOL     OW39151   0.123   9.915   1.155  0.3608 -0.1676 -0.1233
11677SOL    HW139152   0.130   9.944   1.059 -1.8129  0.5812 -0.0922
11677SOL    HW239153   0.120   9.815   1.159 -0.1685 -0.1923 -0.9057
11678SOL     OW39154   6.482   9.983   3.559  0.5080  0.2454 -0.5325
11678SOL    HW139155   6.517   9.956   3.648 -1.7139  0.5775  0.4878
11678SOL    HW239156   6.553   9.973   3.490  2.1210 -0.4369  1.2007
11679SOL     OW39157   0.280   7.666   3.526 -0.4411 -0.1605  0.2828
11679SOL    HW139158   0.378   7.652   3.511 -0.4430  0.8685 -0.7509
11679SOL    HW239159   0.257   7.639   3.620  0.8212 -0.4398  0.5287
11680SOL     OW39160   1.707   3.978   0.063 -0.4855 -0.1202  0.2139
11680SOL    HW139161   1.758   3.966  -0.021  1.2357 -0.6310  1.3113
11680SOL    HW239162   1.746   4.053   0.116 -1.7821  0.4416  0.4116
11681SOL     OW39163   9.334   0.342   2.899  0.0426 -0.0700 -0.1083
11681SOL    HW139164   9.273   0.421   2.905 -1.1736 -0.8653 -1.6045
11681SOL    HW239165   9.421   0.364   2.942  0.2348  2.5884 -1.7310
11682SOL     OW39166   9.903   8.920   3.940 -0.2048  0.0533  0.7764
11682SOL    HW139167   9.857   8.932   4.028  0.6173  1.2584  1.0537
11682SOL    HW239168   9.966   8.996   3.925  0.7484 -0.9188 -0.1924
11683SOL     OW39169   8.989   6.794   1.670 -0.3706  0.4419 -0.6044
11683SOL    HW139170   8.961   6.748   1.754  0.2406  0.2520 -0.4987
11683SOL    HW239171   8.962   6.739   1.591 -0.6575  0.4626 -0.5204
11684SOL     OW39172   9.844   0.783   0.746  0.1553  0.4059  0.0832
11684SOL    HW139173   9.897   0.702   0.772 -1.2752  0.2066  2.6276
11684SOL    HW239174   9.900   0.843   0.689  1.7699 -1.6174 -0.5269
11685SOL     OW39175   3.191   4.489   1.393  0.4521 -0.1186 -0.7125
11685SOL    HW139176   3.146   4.399   1.398  0.2669  0.0633  1.2697
11685SOL    HW239177   3.259   4.488   1.320  0.9996 -2.1285 -0.2026
11686SOL     OW39178   4.272   9.192   2.242  0.2351 -0.1831  0.1660
11686SOL    HW139179   4.311   9.252   2.172 -2.2962  0.6981 -0.5689
11686SOL    HW239180   4.310   9.100   2.233  2.0241  0.6046 -0.5476
11687SOL     OW39181   2.183   0.571   2.702 -0.7867  0.6173  0.1988
11687SOL    HW139182   2.213   0.586   2.796  0.3682 -0.2233 -0.0196
11687SOL    HW239183   2.154   0.475   2.692  2.6811 -0.3845 -1.2036
11689SOL     OW39184   1.624   4.250   4.409  0.1664 -0.4551 -0.0663
11689SOL    HW139185   1.637   4.255   4.310 -0.0360 -0.8809 -0.1135
11689SOL    HW239186   1.527   4.243   4.430  0.2663 -1.2181  0.1292
11690SOL     OW39187   5.440   7.633   2.757 -0.2201  0.1277 -0.0442
11690SOL    HW139188   5.423   7.696   2.682 -0.6469 -1.2471 -1.1109
11690SOL    HW239189   5.527   7.655   2.800 -1.0900  2.4289  0.6090
11691SOL     OW39190   8.404   0.015   0.478  0.3457  0.0706  0.5335
11691SOL    HW139191   8.458  -0.028   0.550  1.7608 -2.0750 -1.7575
11691SOL    HW239192   8.465   0.053   0.408 -1.0327  0.4381 -0.4942
11692SOL     OW39193   3.267   6.062   3.233  0.4536 -0.2807  0.4891
11692SOL    HW139194   3.222   6.147   3.258 -0.2963 -0.9815  1.5874
11692SOL    HW239195   3.354   6.054   3.284 -0.0750 -0.7357  1.3424
11693SOL     OW39196   2.609   7.690   3.337 -0.6571 -0.0261 -0.0395
11693SOL    HW139197   2.592   7.731   3.248  0.7995 -0.6180 -0.6041
11693SOL    HW239198   2.694   7.727   3.375  0.1354 -1.7254 -0.0962
11694SOL     OW39199   7.710   0.770   1.192 -0.5364 -0.2363 -0.2477
11694SOL    HW139200   7.675   0.861   1.211  1.0573  0.3709 -0.1906
11694SOL    HW239201   7.703   0.713   1.274 -0.9461  0.0133 -0.1088
11695SOL     OW39202   0.834   4.663   4.349 -0.5787  0.2738  0.0491
11695SOL    HW139203   0.751   4.706   4.315 -1.1638 -1.1110 -0.3385
11695SOL    HW239204   0.914   4.710   4.312 -1.2016  1.1821 -0.1418
11696SOL     OW39205   4.070   4.135   1.712  0.7817 -0.2431  0.3873
11696SOL    HW139206   4.048   4.064   1.646 -0.2989 -0.4890  0.9988
11696SOL    HW239207   4.160   4.173   1.692  0.4250 -0.2434 -1.2843
11697SOL     OW39208   8.869   3.171   0.487  0.7713 -0.3065  0.3716
11697SOL    HW139209   8.964   3.172   0.458  0.0717 -2.0558 -2.1667
11697SOL    HW239210   8.810   3.198   0.410 -0.7667  1.0481  1.9888
11698SOL     OW39211   4.305   7.906   2.139 -0.0483  0.1994  0.0476
11698SOL    HW139212   4.357   7.839   2.191 -0.8766 -0.8585 -0.4714
11698SOL    HW239213   4.265   7.974   2.202  1.1278  0.4478  0.5285
11699SOL     OW39214   8.665   9.435   4.129 -0.4359  0.1643 -0.7110
11699SOL    HW139215   8.589   9.454   4.192  1.5641 -0.1462  1.9175
11699SOL    HW239216   8.643   9.354   4.075 -0.5455 -2.1614  2.6254
11701SOL     OW39217   9.307   6.017   0.856  0.2964  0.0389 -0.3200
11701SOL    HW139218   9.341   5.935   0.903 -1.9170 -0.4457  0.4684
11701SOL    HW239219   9.355   6.097   0.892  0.1053 -0.5468  1.3138
11702SOL     OW39220   8.490   8.723   0.100  0.5603  0.5417 -0.1060
11702SOL    HW139221   8.394   8.696   0.099 -0.2120  3.0127  1.7737
11702SOL    HW239222   8.532   8.704   0.011 -1.6345 -0.6500 -0.9029
11703SOL     OW39223   8.589   1.299   2.128  0.8147  0.3381 -0.5877
11703SOL    HW139224   8.652   1.271   2.056  1.0024  0.9941 -0.6899
11703SOL    HW239225   8.623   1.384   2.170 -0.1198  0.8204 -0.7909
11704SOL     OW39226   7.060   9.357   1.818  0.0621 -0.9945  0.9093
11704SOL    HW139227   7.063   9.261   1.845  0.2857 -1.5020 -0.8723
11704SOL    HW239228   7.124   9.372   1.743 -0.7033  0.3302  0.5161
11705SOL     OW39229   2.377   8.025   1.153  0.2608 -0.4547  0.1327
11705SOL    HW139230   2.360   7.953   1.086  2.1593 -0.4914 -0.3387
11705SOL    HW239231   2.334   8.110   1.122  0.6323 -0.6146 -0.8491
11707SOL     OW39232   8.855   4.041   3.516 -0.0128 -0.4695 -0.6025
11707SOL    HW139233   8.796   3.967   3.548  1.2809 -0.8566  0.9757
11707SOL    HW239234   8.946   4.004   3.497  0.6423  0.7039  0.1947
11708SOL     OW39235   4.272   8.988   0.781  0.2799 -0.6638  0.2658
11708SOL    HW139236   4.197   9.017   0.840  1.3237  1.0449  0.7797
11708SOL    HW239237   4.246   9.003   0.685 -1.0697 -2.6243  0.3006
11709SOL     OW39238   3.518   0.949   2.794  0.6950  0.0381 -0.1806
11709SOL    HW139239   3.510   0.999   2.881  1.1282  0.3920 -0.3396
11709SOL    HW239240   3.612   0.953   2.762  0.8911 -1.5129  0.1679
11710SOL     OW39241   6.857   9.438   1.164 -0.1953  0.4804 -0.3078
11710SOL    HW139242   6.910   9.510   1.208 -0.5299  0.7438 -0.3290
11710SOL    HW239243   6.765   9.436   1.204  0.1801 -0.7107  0.5113
11711SOL     OW39244   3.588   0.049   4.439 -0.0633  0.1416  0.0098
11711SOL    HW139245   3.519   0.121   4.452 -0.5841 -0.2828 -0.3724
11711SOL    HW239246   3.578   0.010   4.347  0.3143 -0.3105  0.1605
11712SOL     OW39247   9.416   3.581   0.765  0.3977 -0.3675 -0.0570
11712SOL    HW139248   9.392   3.633   0.683  0.3959 -0.8885 -0.3876
11712SOL    HW239249   9.344   3.592   0.834  0.8065  0.7558  0.1954
11713SOL     OW39250   0.349   9.510   0.498  0.4626 -0.2314 -0.2583
11713SOL    HW139251   0.274   9.451   0.527 -0.2094  0.7113 -0.0206
11713SOL    HW239252   0.319   9.567   0.421  0.6653  0.7063  0.3436
11714SOL     OW39253   8.001   9.640   0.857 -0.8032  0.0908 -0.5277
11714SOL    HW139254   8.010   9.740   0.857  0.5153  0.0009  0.8470
11714SOL    HW239255   7.972   9.609   0.948  3.8120 -1.0980  0.7157
11715SOL     OW39256   8.639   1.245   1.696 -0.3119 -0.1185 -0.0556
11715SOL    HW139257   8.612   1.179   1.626 -0.7783  0.2074 -0.1856
11715SOL    HW239258   8.602   1.335   1.673 -1.0439 -0.1462  0.9626
11716SOL     OW39259   9.000   5.602   4.431  0.1534  0.3218  0.3759
11716SOL    HW139260   9.081   5.661   4.430 -0.2340  0.8669 -1.3394
11716SOL    HW239261   8.930   5.643   4.373 -0.1835 -1.7489 -0.6906
11717SOL     OW39262   0.799   0.654   2.962  0.2298  0.0681 -0.9241
11717SOL    HW139263   0.727   0.706   2.916 -2.0923  0.2894  2.7751
11717SOL    HW239264   0.773   0.557   2.965 -0.9665  0.4349  2.1630
11718SOL     OW39265   3.705   0.223   4.152 -0.3166 -0.0741 -0.2673
11718SOL    HW139266   3.618   0.240   4.197  0.4911  1.0711  0.8744
11718SOL    HW239267   3.754   0.150   4.200  1.2338  2.2027  1.7135
11719SOL     OW39268   0.403   2.383   0.348  0.0458 -0.4464  0.3670
11719SOL    HW139269   0.428   2.475   0.379 -0.7501  0.2076 -0.9058
11719SOL    HW239270   0.323   2.351   0.398 -0.9897  0.4420 -0.7035
11720SOL     OW39271   7.110   9.873   3.666  0.2115 -0.5722  0.3482
11720SOL    HW139272   7.189   9.933   3.676 -0.3513  0.0078  1.3369
11720SOL    HW239273   7.046   9.913   3.601  0.6511 -0.9615 -0.3264
11721SOL     OW39274   3.674   7.762   0.027  0.0027  0.5782  0.2188
11721SOL    HW139275   3.694   7.797  -0.064 -0.0992  0.3057  0.0907
11721SOL    HW239276   3.707   7.827   0.096  0.5440  0.5409 -0.0030
11722SOL     OW39277   0.988   1.985   2.936 -0.0145  0.1498  0.2934
11722SOL    HW139278   0.974   2.038   2.853 -0.6918 -3.1548 -1.8025
11722SOL    HW239279   0.914   2.004   3.001 -0.9189  0.8239 -0.9095
11723SOL     OW39280   7.325   1.013   1.769 -0.4102 -0.4598 -0.8081
11723SOL    HW139281   7.259   0.972   1.706 -0.8001  1.9884 -2.0970
11723SOL    HW239282   7.317   1.113   1.764  2.2073 -0.1526  0.2938
11726SOL     OW39283   3.162   5.258   2.360  0.1466 -0.4401  0.3976
11726SOL    HW139284   3.096   5.308   2.415  1.1249  1.9861 -0.5552
11726SOL    HW239285   3.215   5.323   2.305  1.8274 -2.5041 -0.4740
11728SOL     OW39286   9.537   8.186   2.310 -0.4487 -0.3934 -0.2170
11728SOL    HW139287   9.455   8.184   2.252 -1.3393  2.1775  0.9141
11728SOL    HW239288   9.514   8.154   2.402 -0.0022 -0.3931 -0.1054
11729SOL     OW39289   3.922   7.919   4.162  0.6853 -0.2086 -0.0230
11729SOL    HW139290   3.844   7.857   4.155  1.2090 -0.9590  0.7326
11729SOL    HW239291   3.974   7.898   4.245  1.1640  0.8951 -0.0361
11730SOL     OW39292   7.347   1.803   2.760 -0.0784 -0.3029  0.1410
11730SOL    HW139293   7.256   1.790   2.721  0.0259 -0.7734  0.0526
11730SOL    HW239294   7.414   1.809   2.686 -0.0476  0.1052  0.2035
11732SOL     OW39295   3.101   8.052   1.522 -0.1600  0.0312  0.0874
11732SOL    HW139296   3.104   7.953   1.533  0.9384  0.1862  1.2346
11732SOL    HW239297   3.175   8.082   1.462 -1.6120 -0.0136 -1.7891
11733SOL     OW39298   8.665   7.370   0.654 -0.0996  0.1631  0.2279
11733SOL    HW139299   8.626   7.343   0.566 -0.4430  0.5240  0.2701
11733SOL    HW239300   8.722   7.296   0.689  0.9719  0.4565 -0.8561
11735SOL     OW39301   9.024   8.614   0.622 -0.3230 -0.7618 -0.3037
11735SOL    HW139302   9.122   8.599   0.633 -0.2446  0.5526  0.9749
11735SOL    HW239303   9.008   8.681   0.550 -0.2480 -0.4029  0.0155
11736SOL     OW39304   4.643   9.775   2.740  0.4559 -0.0962 -0.1850
11736SOL    HW139305   4.570   9.711   2.767  0.6152  0.2736  1.1584
11736SOL    HW239306   4.610   9.869   2.749  1.6688  0.1389  2.2395
11737SOL     OW39307   0.154   8.076   1.149 -0.6793  0.1173 -0.2942
11737SOL    HW139308   0.197   8.065   1.239 -0.4938 -0.4922 -0.4580
11737SOL    HW239309   0.055   8.087   1.161 -1.1140 -3.3286 -0.1954
11738SOL     OW39310   8.397   3.563   0.334 -0.0449  0.5531 -0.1638
11738SOL    HW139311   8.403   3.638   0.268 -0.2637  1.0804  0.4089
11738SOL    HW239312   8.461   3.580   0.409  0.1281  0.0077 -0.1913
11739SOL     OW39313   9.761   0.839   2.657  0.5341 -0.4429  0.4208
11739SOL    HW139314   9.678   0.894   2.647 -0.7021 -2.2276  0.6602
11739SOL    HW239315   9.813   0.842   2.572 -0.4599 -0.4028 -0.1971
11741SOL     OW39316   2.447   6.670   1.675  0.2792  0.8737  0.3536
11741SOL    HW139317   2.511   6.684   1.751  0.2577  2.2899  0.1353
11741SOL    HW239318   2.462   6.741   1.605 -0.8751  0.6485 -0.1441
11742SOL     OW39319   2.360   0.584   0.592  0.3529  0.2865 -0.4081
11742SOL    HW139320   2.365   0.679   0.559 -1.8217  0.4573 -0.2872
11742SOL    HW239321   2.354   0.584   0.691 -1.3064  0.0963 -0.5006
11743SOL     OW39322   2.047   5.374   1.048  0.3899  0.2833 -0.8229
11743SOL    HW139323   2.114   5.440   1.083 -0.6610  0.9003  0.0697
11743SOL    HW239324   2.061   5.285   1.091 -1.6915  1.3392  2.2525
11744SOL     OW39325   8.276   2.627   2.032  0.0624 -0.1288 -0.1223
11744SOL    HW139326   8.287   2.717   2.073 -1.6080 -0.2472  0.6316
11744SOL    HW239327   8.200   2.629   1.967  0.9162 -0.6409 -1.1487
11745SOL     OW39328   3.503   0.526   2.308 -0.0633  0.8253 -0.2758
11745SOL    HW139329   3.453   0.480   2.235 -2.1654  1.0165  1.0049
11745SOL    HW239330   3.439   0.573   2.369  1.5849  0.3239  1.9398
11747SOL     OW39331   3.278   5.338   0.169 -0.4051 -0.2940  0.1978
11747SOL    HW139332   3.194   5.364   0.216 -0.6422 -0.4561 -0.1313
11747SOL    HW239333   3.355   5.390   0.206 -0.8790  0.9018 -0.4717
11748SOL     OW39334   2.642   5.140   4.063  0.3989  0.4944  0.0275
11748SOL    HW139335   2.595   5.077   4.002  1.3774 -0.9929  0.7880
11748SOL    HW239336   2.575   5.188   4.120 -0.2770 -0.7188  0.2677
11750SOL     OW39337   3.924   0.772   2.522 -0.2120  0.1145 -0.0021
11750SOL    HW139338   4.005   0.803   2.471  0.3578 -1.9047 -0.3523
11750SOL    HW239339   3.857   0.737   2.458 -0.2319 -0.7772  0.5065
11751SOL     OW39340   1.689   8.116   0.243  0.0327  0.4543  0.1577
11751SOL    HW139341   1.710   8.165   0.327 -2.3884  1.6358  0.1379
11751SOL    HW239342   1.771   8.108   0.187  1.5718  0.0634  2.4012
11752SOL     OW39343   8.071   1.878   0.059  0.0307  0.0033 -0.0153
11752SOL    HW139344   8.043   1.973   0.042  0.2437  0.3936  1.6394
11752SOL    HW239345   8.159   1.861   0.016  1.0733  1.2770  1.5433
11755SOL     OW39346   9.777   6.135   0.941  0.5182 -0.0387 -0.2524
11755SOL    HW139347   9.739   6.119   1.032 -1.2070 -0.4820 -1.0356
11755SOL    HW239348   9.790   6.233   0.926  0.6963  0.0401  0.4139
11756SOL     OW39349   4.580   1.230   1.500 -0.0094  0.3572 -0.1316
11756SOL    HW139350   4.607   1.141   1.538 -0.5759  0.0488 -0.4480
11756SOL    HW239351   4.588   1.228   1.401  0.0793  0.6921 -0.1307
11757SOL     OW39352   9.928   0.264   4.271  0.1467  0.6424 -0.0980
11757SOL    HW139353   9.870   0.340   4.300  0.9051  1.6072 -1.0859
11757SOL    HW239354  10.024   0.288   4.286  0.3336 -0.7100  0.9662
11758SOL     OW39355   4.120   7.926   3.704 -0.1315 -0.3805 -0.3431
11758SOL    HW139356   4.032   7.880   3.705  0.1118 -0.8417  0.1737
11758SOL    HW239357   4.143   7.958   3.796  0.2420 -0.2745 -0.4691
11759SOL     OW39358   1.188   8.596   1.222  0.1408  0.0720 -0.0711
11759SOL    HW139359   1.134   8.557   1.148 -0.4583  1.0831 -0.1769
11759SOL    HW239360   1.157   8.559   1.310 -0.4564  0.3508 -0.1648
11760SOL     OW39361   7.165   0.336   3.729  0.1413  0.0046 -0.3214
11760SOL    HW139362   7.170   0.237   3.740  0.2951  0.1482  1.0024
11760SOL    HW239363   7.101   0.374   3.796  2.3366  1.0860  1.2459
11761SOL     OW39364   0.805   2.288   1.982 -0.0149  0.1130 -0.3175
11761SOL    HW139365   0.795   2.378   2.025 -0.6056 -0.1291  0.0687
11761SOL    HW239366   0.901   2.272   1.960  0.1613  0.6446  0.0439
11762SOL     OW39367   3.135   4.172   0.100 -0.2671  0.2296  0.1040
11762SOL    HW139368   3.214   4.140   0.152 -0.9790  0.7693  1.5285
11762SOL    HW239369   3.165   4.240   0.033  0.8442 -1.4142 -1.1120
11763SOL     OW39370   4.712   3.478   1.329 -0.3169 -0.0072 -0.7819
11763SOL    HW139371   4.672   3.566   1.357 -1.2366 -0.4849 -0.5722
11763SOL    HW239372   4.655   3.404   1.364 -0.1992 -0.6603 -1.9726
11764SOL     OW39373   8.143   5.953   3.808  0.3555  0.0950 -0.6507
11764SOL    HW139374   8.104   5.947   3.716  1.0135 -2.3376 -0.8193
11764SOL    HW239375   8.184   5.865   3.832  2.7426  1.5532  0.8374
11765SOL     OW39376   2.715   3.915   2.018  0.1297  0.0549  0.3964
11765SOL    HW139377   2.697   4.011   2.040  0.6699  0.4369 -0.7837
11765SOL    HW239378   2.629   3.871   1.990 -0.4231 -0.2459  2.4612
11766SOL     OW39379   4.683   2.646   3.175 -0.8162 -0.0743 -0.0354
11766SOL    HW139380   4.603   2.689   3.134  0.0805  0.3987 -1.3159
11766SOL    HW239381   4.728   2.587   3.108  1.6194  1.9906 -0.3247
11769SOL     OW39382   8.046   7.635   3.434  0.0475  0.1188 -0.3371
11769SOL    HW139383   7.970   7.654   3.496 -0.9290 -2.8294 -0.5554
11769SOL    HW239384   8.131   7.665   3.476 -0.9617  1.2381  0.9607
11771SOL     OW39385   2.817   6.747   0.166  0.3160 -0.1809 -0.4758
11771SOL    HW139386   2.722   6.758   0.195  0.5400  0.4580  0.0376
11771SOL    HW239387   2.831   6.654   0.133 -0.5181 -0.2428 -0.6692
11772SOL     OW39388   3.770   5.511   1.447 -0.5159  0.0855 -0.4669
11772SOL    HW139389   3.713   5.594   1.448 -0.9918 -0.2202 -1.5905
11772SOL    HW239390   3.806   5.495   1.539 -0.8421  1.2497 -0.1228
11773SOL     OW39391   1.863   9.947   3.788 -0.5905  0.2574  0.5336
11773SOL    HW139392   1.889   9.984   3.699 -0.9519  2.0910  1.1715
11773SOL    HW239393   1.790   9.880   3.776 -0.9871  0.8639 -0.5096
11774SOL     OW39394   1.353   7.815   0.448  0.5185  0.0152  0.0979
11774SOL    HW139395   1.437   7.831   0.396 -0.8329 -0.4251 -2.3195
11774SOL    HW239396   1.300   7.900   0.454 -0.3451 -0.4093 -1.1737
11775SOL     OW39397   8.740   2.402   2.223  0.1835 -0.0312 -0.1629
11775SOL    HW139398   8.672   2.412   2.151 -1.0116  0.7565  1.0394
11775SOL    HW239399   8.696   2.414   2.312  1.6668 -0.7615  0.6945
11776SOL     OW39400   7.680   5.464   3.212  0.5982 -0.3058 -0.9539
11776SOL    HW139401   7.740   5.478   3.133  0.7824 -0.0475 -0.7678
11776SOL    HW239402   7.647   5.552   3.246  2.3576 -0.2418  0.6787
11777SOL     OW39403   0.461   9.869   3.157  0.1966 -0.1488 -0.0780
11777SOL    HW139404   0.369   9.838   3.181 -0.0266 -0.6324 -1.4734
11777SOL    HW239405   0.528   9.808   3.199 -0.0262  1.4294  2.6714
11778SOL     OW39406   8.087   3.394   2.542 -0.4020 -0.2919 -0.5940
11778SOL    HW139407   8.137   3.468   2.587 -0.4724 -0.5868 -0.0174
11778SOL    HW239408   8.146   3.350   2.475  0.2354 -0.8561  0.3214
11779SOL     OW39409   1.461   9.176   0.298  0.1429  0.5578  0.3612
11779SOL    HW139410   1.476   9.190   0.200  0.9001 -0.6155  0.2990
11779SOL    HW239411   1.412   9.254   0.336 -2.2623 -0.0011 -1.4401
11780SOL     OW39412   3.005   3.947   2.851  0.2645 -0.2147  0.7937
11780SOL    HW139413   2.981   3.935   2.755 -2.8836  1.0504  1.3792
11780SOL    HW239414   2.983   3.863   2.901  2.5376 -1.1285  0.3733
11781SOL     OW39415   4.624   9.921   1.734 -0.2666 -0.4612 -0.2196
11781SOL    HW139416   4.703   9.976   1.763  0.7501 -1.6232 -0.7219
11781SOL    HW239417   4.615   9.842   1.794 -1.2780 -0.1476  0.0508
11782SOL     OW39418   1.369   0.556   1.713  0.7119  0.3676 -0.2308
11782SOL    HW139419   1.464   0.526   1.722  0.8430  1.3968  2.0315
11782SOL    HW239420   1.308   0.481   1.737  0.9613 -0.0299 -0.8367
11783SOL     OW39421   8.394   3.276   0.872  0.4779  0.3929 -0.2846
11783SOL    HW139422   8.411   3.366   0.913  0.2566  0.3828 -0.1682
11783SOL    HW239423   8.346   3.287   0.785  3.2110  0.5553 -1.8251
11785SOL     OW39424   4.217   9.213   4.145  0.3815  0.3441  0.1438
11785SOL    HW139425   4.262   9.302   4.133  0.0070  0.4514 -0.4521
11785SOL    HW239426   4.200   9.172   4.056  1.2721 -0.6868  0.4389
11786SOL     OW39427   4.330   3.132   3.840  0.3196  0.1202  0.3552
11786SOL    HW139428   4.323   3.217   3.893  1.1351 -0.4480  1.3795
11786SOL    HW239429   4.259   3.068   3.870 -0.2037  0.3781 -0.3183
11787SOL     OW39430   4.322   7.360   4.010  0.1293 -0.0264  0.1368
11787SOL    HW139431   4.226   7.338   3.994  0.0133  0.7173 -0.2058
11787SOL    HW239432   4.344   7.347   4.107 -0.6068  0.8729  0.4273
11788SOL     OW39433   3.274   3.238   1.206 -0.2942  0.0894 -0.1218
11788SOL    HW139434   3.218   3.186   1.271  0.1471  0.0825  0.2554
11788SOL    HW239435   3.348   3.284   1.256  1.1921 -1.4434 -0.8404
11789SOL     OW39436   0.963   0.738   3.985 -0.0726 -0.7166  0.3404
11789SOL    HW139437   1.056   0.743   3.950  0.5157 -0.6084  1.9015
11789SOL    HW239438   0.932   0.830   4.009 -0.3123 -0.8475  0.5317
11791SOL     OW39439   4.816   3.825   2.271  0.3526  0.1947  0.2448
11791SOL    HW139440   4.725   3.812   2.309  0.7098  0.1302  1.1013
11791SOL    HW239441   4.841   3.922   2.276 -0.2246  0.4269 -1.2869
11792SOL     OW39442   9.281   6.995   4.309 -0.6082 -0.3437 -0.6737
11792SOL    HW139443   9.321   7.057   4.242 -2.0389 -0.2167 -1.4201
11792SOL    HW239444   9.247   6.913   4.263 -1.0722 -0.5197 -0.0277
11793SOL     OW39445   9.569   3.617   1.947  0.4200  0.7182  0.0175
11793SOL    HW139446   9.649   3.574   1.991 -0.2327 -0.4383  0.0844
11793SOL    HW239447   9.515   3.665   2.016  0.0305 -0.1130  0.3011
11794SOL     OW39448   5.440   0.603   3.883  0.3396  0.0529 -0.2835
11794SOL    HW139449   5.539   0.593   3.869  0.7269 -0.4582  2.5114
11794SOL    HW239450   5.420   0.694   3.919 -0.2275  0.2236 -1.0287
11795SOL     OW39451   0.519   9.528   3.948  0.1417 -0.2451  0.0259
11795SOL    HW139452   0.578   9.448   3.961 -0.7515 -0.8908  0.1052
11795SOL    HW239453   0.565   9.594   3.888  0.1721 -1.5735 -1.4254
11796SOL     OW39454   3.696   4.831   3.950 -0.4677 -0.3414 -0.7109
11796SOL    HW139455   3.713   4.757   4.015  0.0891 -0.2905 -0.7943
11796SOL    HW239456   3.680   4.792   3.859  0.2724 -0.3430 -0.8447
11797SOL     OW39457   8.190   8.731   0.241 -0.0612  0.2770 -0.0670
11797SOL    HW139458   8.119   8.729   0.171  0.5869  1.1166 -0.7514
11797SOL    HW239459   8.172   8.807   0.304  0.0620  0.2934 -0.0529
11798SOL     OW39460   1.416   5.265   2.483 -0.7135  0.2462  0.0268
11798SOL    HW139461   1.506   5.252   2.439 -0.2939 -0.4285  1.0697
11798SOL    HW239462   1.406   5.361   2.510  0.4897 -0.0435  1.6016
11799SOL     OW39463   9.356   8.244   1.129 -0.4448  0.2925 -0.7418
11799SOL    HW139464   9.404   8.189   1.198 -1.8879  0.1092  0.1332
11799SOL    HW239465   9.330   8.332   1.169  0.1029  0.8191 -1.5391
11800SOL     OW39466   0.727   0.267   1.206  0.6162 -0.0994  0.5742
11800SOL    HW139467   0.722   0.172   1.177  0.5322  0.5529 -1.6072
11800SOL    HW239468   0.647   0.290   1.261  1.3546 -1.6721  2.3695
11801SOL     OW39469   9.837   4.317   0.741  0.3108  0.1421  0.3681
11801SOL    HW139470   9.914   4.318   0.676 -1.1870 -1.0596 -1.4750
11801SOL    HW239471   9.759   4.363   0.701 -0.8612 -1.2145  1.0443
11802SOL     OW39472   1.927   4.269   3.900 -0.2111  0.2125  0.5749
11802SOL    HW139473   1.884   4.238   3.815  1.8256 -2.0632  0.3075
11802SOL    HW239474   1.892   4.359   3.924 -2.0499  0.1900 -1.7883
11803SOL     OW39475   0.007   0.578   0.493 -0.4677  0.3515  0.6591
11803SOL    HW139476   0.009   0.658   0.434 -2.3650  0.2334  0.3935
11803SOL    HW239477   0.081   0.516   0.468  0.8252  1.8672  0.6710
11805SOL     OW39478   7.778   2.599   0.703  0.6062  0.1007 -0.0559
11805SOL    HW139479   7.821   2.654   0.631 -1.7157  2.5453  0.3235
11805SOL    HW239480   7.821   2.620   0.790  0.3997  0.5396 -0.0604
11806SOL     OW39481   9.280   2.225   3.802 -0.1345  0.4374  0.2481
11806SOL    HW139482   9.213   2.239   3.729 -0.6525  1.3063  0.8746
11806SOL    HW239483   9.369   2.259   3.772 -0.2798  0.5106 -0.1020
11807SOL     OW39484   7.637   2.932   2.088  0.0545 -0.5983  0.3540
11807SOL    HW139485   7.593   2.862   2.031  0.0867  1.2967 -2.0844
11807SOL    HW239486   7.595   3.021   2.070  2.6713  0.6944  0.4389
11808SOL     OW39487   3.477   3.793   3.204  0.5293  0.2589 -0.5950
11808SOL    HW139488   3.429   3.836   3.128  0.1205  0.4512 -0.2292
11808SOL    HW239489   3.410   3.757   3.270  0.8653 -0.7646 -0.8046
11809SOL     OW39490   1.471   3.572   0.543 -0.5464 -0.3896 -0.3938
11809SOL    HW139491   1.444   3.634   0.470  0.0553  1.2101  0.7021
11809SOL    HW239492   1.474   3.478   0.508 -0.0426  0.3690 -2.4714
11810SOL     OW39493   8.150   8.524   0.889  0.5050  0.0045 -0.2024
11810SOL    HW139494   8.120   8.438   0.847 -2.0094 -0.0142  1.4917
11810SOL    HW239495   8.117   8.601   0.833 -0.1537 -0.0792  0.0650
11811SOL     OW39496   2.921   3.521   0.452 -0.3888 -0.4406  0.6375
11811SOL    HW139497   2.918   3.425   0.424  1.1116 -0.2039 -0.3345
11811SOL    HW239498   2.847   3.572   0.407 -0.6290 -0.9480  0.4574
11812SOL     OW39499   8.658   9.705   0.427 -0.2115  0.1084  0.4448
11812SOL    HW139500   8.648   9.756   0.513 -0.4593 -0.1040  0.5431
11812SOL    HW239501   8.569   9.695   0.383 -0.0659  0.3170  0.1003
11813SOL     OW39502   7.778   9.590   0.600 -0.2809 -0.4540 -0.2178
11813SOL    HW139503   7.778   9.685   0.632  0.7457 -0.2587 -0.8034
11813SOL    HW239504   7.792   9.529   0.679 -1.7919 -0.1750  0.2845
11814SOL     OW39505   1.730   6.150   0.552  0.0940  0.3435 -0.1893
11814SOL    HW139506   1.761   6.085   0.622  0.1814  0.9626  0.3510
11814SOL    HW239507   1.641   6.188   0.579 -0.2615 -0.0398 -0.8233
11815SOL     OW39508   1.608   1.883   2.450  0.8608  0.2539 -0.4067
11815SOL    HW139509   1.667   1.945   2.503 -0.5233  2.0076 -0.8451
11815SOL    HW239510   1.660   1.804   2.421  2.6229  1.0810  0.4167
11816SOL     OW39511   0.164   9.412   1.726 -0.4230 -0.2033  0.2541
11816SOL    HW139512   0.117   9.453   1.805 -1.7873 -1.1634 -0.0409
11816SOL    HW239513   0.230   9.478   1.690 -0.4034  0.5831  1.6592
11817SOL     OW39514   2.326   1.699   3.366 -0.0142  0.8101  0.0684
11817SOL    HW139515   2.332   1.606   3.403 -0.9880  0.2283 -1.2050
11817SOL    HW239516   2.230   1.720   3.346  0.1253  2.3477  1.0033
11818SOL     OW39517   0.918   8.096   0.191  0.1395  0.5378 -0.3833
11818SOL    HW139518   0.875   8.012   0.158  0.4151  0.4648 -0.5610
11818SOL    HW239519   0.856   8.173   0.177 -1.1020  0.0334  1.9263
11819SOL     OW39520   1.518   5.770   3.086 -0.1974 -0.1125 -0.5006
11819SOL    HW139521   1.471   5.698   3.137 -1.1701  0.3785 -0.6854
11819SOL    HW239522   1.513   5.855   3.138  0.1247  0.0399 -0.7211
11820SOL     OW39523   5.408   7.896   1.461  0.1913  0.3188 -0.8797
11820SOL    HW139524   5.502   7.862   1.466 -0.3867 -1.3000 -0.6844
11820SOL    HW239525   5.351   7.844   1.525 -0.7783  1.4923 -0.7786
11821SOL     OW39526   0.183   4.524   3.858 -0.0007 -0.5419 -0.0566
11821SOL    HW139527   0.259   4.529   3.793  1.5056 -3.0728  1.4663
11821SOL    HW239528   0.138   4.613   3.862  1.8142  0.5354 -2.2298
11822SOL     OW39529   9.611   1.442   3.089 -0.3292 -0.0423  0.0043
11822SOL    HW139530   9.689   1.419   3.147 -0.6910 -0.9163  0.1511
11822SOL    HW239531   9.644   1.483   3.004  0.2575  0.1721  0.3262
11823SOL     OW39532   8.159   1.370   1.452 -0.4811  0.3067  0.3247
11823SOL    HW139533   8.097   1.364   1.530 -0.6403  0.1238  0.1880
11823SOL    HW239534   8.111   1.337   1.370 -0.7190  1.6403 -0.0823
11824SOL     OW39535   3.429   4.546   2.388  0.0407  0.3343  0.2550
11824SOL    HW139536   3.395   4.511   2.300  0.7584 -0.2958  0.2222
11824SOL    HW239537   3.412   4.644   2.393  1.0302  0.5898 -1.0859
11825SOL     OW39538   3.999   2.702   1.690 -0.5874 -0.3208  0.2607
11825SOL    HW139539   3.969   2.624   1.635 -0.9811  0.3423 -0.4628
11825SOL    HW239540   3.996   2.676   1.787  0.5629 -1.6407 -0.0404
11826SOL     OW39541   0.419   5.530   4.178 -0.1643  0.4248  0.8040
11826SOL    HW139542   0.337   5.517   4.233 -0.1720 -0.0500  0.6810
11826SOL    HW239543   0.402   5.601   4.109 -1.1358 -1.0560 -0.5171
11829SOL     OW39544   2.797   6.687   4.368  0.5298  0.1243 -0.5318
11829SOL    HW139545   2.799   6.631   4.451 -1.9295  0.2500 -0.3561
11829SOL    HW239546   2.773   6.629   4.290  1.0434  0.3660 -0.8724
11830SOL     OW39547   3.548   6.298   3.977  0.3049 -0.2441  0.0996
11830SOL    HW139548   3.556   6.236   3.899  0.1774 -0.0655 -0.0559
11830SOL    HW239549   3.595   6.383   3.957 -0.0862 -0.0371  0.0481
11832SOL     OW39550   9.684   1.213   3.679  0.0926 -0.2204  0.2396
11832SOL    HW139551   9.769   1.264   3.691  0.5502 -1.1351  0.9265
11832SOL    HW239552   9.696   1.121   3.714 -0.9761 -0.5613 -0.2922
11836SOL     OW39553   2.983   5.945   0.681 -0.0866  0.1144 -0.8002
11836SOL    HW139554   2.984   5.938   0.781 -1.4645  0.7077 -0.7382
11836SOL    HW239555   2.890   5.962   0.650  0.5251  1.1392 -2.1005
11837SOL     OW39556   3.478   4.374   3.136  0.3327  0.2413  0.1094
11837SOL    HW139557   3.475   4.318   3.054  0.5632  0.1145  0.1867
11837SOL    HW239558   3.506   4.318   3.214  0.6372  0.4792  0.1722
11838SOL     OW39559   9.796   8.650   2.024  0.0062  0.0223  0.4901
11838SOL    HW139560   9.817   8.569   2.080 -0.2385  0.0057  0.5624
11838SOL    HW239561   9.842   8.730   2.062 -0.9954  0.2093  1.3435
11839SOL     OW39562   0.132   2.276   0.932 -0.2917  0.4495  0.1984
11839SOL    HW139563   0.198   2.211   0.970 -1.4931 -0.1054  1.3915
11839SOL    HW239564   0.084   2.234   0.855  1.5836  1.2844 -1.4306
11840SOL     OW39565   6.807   0.466   1.539  0.1130  0.4172 -0.4393
11840SOL    HW139566   6.878   0.465   1.469  0.1922  0.6383 -0.3650
11840SOL    HW239567   6.720   0.435   1.500  0.4790 -0.8356 -0.2732
11841SOL     OW39568   3.247   1.885   0.135 -0.0294 -0.4071  0.2934
11841SOL    HW139569   3.247   1.911   0.232  0.1925  2.5455 -0.4355
11841SOL    HW239570   3.153   1.887   0.100  0.0630  0.0857  0.0703
11842SOL     OW39571   7.956   7.507   2.316  0.5173 -0.0491  0.0719
11842SOL    HW139572   7.947   7.484   2.219  1.2745  0.9583 -0.2464
11842SOL    HW239573   8.028   7.451   2.357  0.8454  0.1910 -0.1746
11844SOL     OW39574   4.187   0.402   2.418 -0.5582 -0.0861  0.3489
11844SOL    HW139575   4.158   0.451   2.501  0.3980  0.1519  0.5541
11844SOL    HW239576   4.117   0.411   2.348 -0.6732  1.0653  0.5984
11845SOL     OW39577   4.181   8.682   1.705 -0.0951  0.1365 -0.2222
11845SOL    HW139578   4.090   8.673   1.745  0.1780 -1.3784  0.1130
11845SOL    HW239579   4.172   8.707   1.608 -0.8631  0.0631 -0.1731
11846SOL     OW39580   8.281   4.884   0.631 -0.2036  0.0087  0.8200
11846SOL    HW139581   8.266   4.799   0.682  1.3130 -2.1743 -2.2122
11846SOL    HW239582   8.195   4.916   0.592 -0.5330 -0.9285  0.7742
11847SOL     OW39583   6.775   8.934   2.619  0.4220 -0.0004  0.0431
11847SOL    HW139584   6.788   8.984   2.704  0.7153 -1.2131  0.7203
11847SOL    HW239585   6.679   8.937   2.592  1.0412  4.2606 -2.0250
11848SOL     OW39586   4.122   9.900   4.120  0.5130  0.1101 -0.3332
11848SOL    HW139587   4.069   9.816   4.132  1.7893 -0.8181 -1.0743
11848SOL    HW239588   4.108   9.935   4.028  0.4163  0.4222 -0.2018
11849SOL     OW39589   2.755   3.772   3.761  0.3823  0.5484 -0.1219
11849SOL    HW139590   2.675   3.716   3.782  1.2015 -0.9645 -0.9614
11849SOL    HW239591   2.838   3.724   3.788  1.0778  1.6807 -0.1825
11851SOL     OW39592   2.114   4.026   4.171 -0.2212  0.4300  0.0995
11851SOL    HW139593   2.158   4.073   4.094  0.0252 -1.0278 -0.6661
11851SOL    HW239594   2.128   4.078   4.255  2.5065  0.2798 -0.2294
11852SOL     OW39595   8.098   7.196   1.321 -0.0068 -0.2562  0.4365
11852SOL    HW139596   8.107   7.124   1.389 -0.9271  0.0571  0.8991
11852SOL    HW239597   8.016   7.250   1.340 -0.2260 -0.1135 -0.8738
11853SOL     OW39598   3.085   3.339   3.808  0.7570  0.1017  0.1581
11853SOL    HW139599   3.151   3.267   3.786 -0.2023 -0.4179 -1.1004
11853SOL    HW239600   3.032   3.311   3.888  0.7002 -0.3902 -0.0496
11854SOL     OW39601   8.392   6.908   2.322 -0.2464 -0.3536  0.0552
11854SOL    HW139602   8.471   6.851   2.299 -0.5354 -0.4641 -0.6593
11854SOL    HW239603   8.374   6.902   2.420  1.3753  0.6020  0.4380
11855SOL     OW39604   0.856   8.580   4.314 -0.0055 -0.2415  0.6435
11855SOL    HW139605   0.766   8.582   4.271  0.9908  0.5924 -1.4645
11855SOL    HW239606   0.859   8.646   4.389 -0.5423  1.1133 -0.5167
11856SOL     OW39607   3.792   6.662   2.827  0.4413 -0.4751  0.1748
11856SOL    HW139608   3.874   6.703   2.867  0.6189  0.1754 -0.8463
11856SOL    HW239609   3.807   6.645   2.730 -0.5913 -0.4704  0.0119
11857SOL     OW39610   0.594   4.745   2.062 -0.1042  0.0563 -0.2420
11857SOL    HW139611   0.558   4.827   2.016  1.2728  1.1491  0.5807
11857SOL    HW239612   0.551   4.735   2.151  0.5732  0.5531  0.1445
11858SOL     OW39613   2.376   4.539   4.200  0.0890 -0.0514 -0.2722
11858SOL    HW139614   2.406   4.633   4.189  1.8746 -0.8748 -2.8248
11858SOL    HW239615   2.316   4.532   4.280  1.7356  2.8092  1.2893
11859SOL     OW39616   8.156   7.737   2.172  0.0345  0.0888 -0.4263
11859SOL    HW139617   8.199   7.718   2.261  3.1215  2.8812 -1.2149
11859SOL    HW239618   8.083   7.804   2.183  0.3153  0.3192  0.0215
11860SOL     OW39619   2.867   6.250   1.879  0.4699  0.4539  0.1803
11860SOL    HW139620   2.891   6.257   1.975 -0.5379  1.3049  0.3689
11860SOL    HW239621   2.817   6.164   1.863  1.6713 -0.2666  0.1822
11861SOL     OW39622   7.259   0.435   3.482 -0.0479  0.1099  0.4543
11861SOL    HW139623   7.217   0.391   3.562 -0.8865  0.5184  0.2493
11861SOL    HW239624   7.307   0.367   3.427  0.9880 -0.1002  1.5790
11862SOL     OW39625   4.996   0.122   4.158  0.1895 -0.6835  0.2520
11862SOL    HW139626   5.071   0.079   4.107  0.2648  1.6973 -1.7708
11862SOL    HW239627   4.919   0.138   4.096 -0.0424  1.5429  1.0658
11863SOL     OW39628   1.121   6.150   3.729  0.0547 -0.2730  0.2788
11863SOL    HW139629   1.132   6.249   3.722 -2.0019  0.0706  1.3957
11863SOL    HW239630   1.080   6.128   3.818  0.3560 -2.1037 -0.0328
11864SOL     OW39631   3.977   3.898   1.273 -0.2915 -0.2019  0.0151
11864SOL    HW139632   3.899   3.838   1.254 -0.4661  0.5887 -1.9116
11864SOL    HW239633   4.018   3.927   1.187  1.7774 -0.1143  0.9956
11869SOL     OW39634   3.919   8.131   1.098  0.0769  0.8377  0.1919
11869SOL    HW139635   3.912   8.226   1.128  1.9696  1.0912 -0.1482
11869SOL    HW239636   3.996   8.087   1.143 -1.0709 -0.6852  0.6958
11870SOL     OW39637   8.995   1.642   0.885 -0.1269  0.2750  0.2971
11870SOL    HW139638   9.043   1.725   0.860  0.5835 -0.0369  0.6217
11870SOL    HW239639   8.968   1.593   0.802 -1.5289  1.3762  0.0828
11871SOL     OW39640   8.870   4.739   2.841 -0.1209  0.2255  0.1947
11871SOL    HW139641   8.854   4.813   2.776 -1.9856 -0.7967 -0.5479
11871SOL    HW239642   8.835   4.653   2.803  0.8397 -0.7944  1.5861
11872SOL     OW39643   2.890   2.583   2.586 -0.1795 -0.1068 -0.1261
11872SOL    HW139644   2.883   2.623   2.495 -1.3483 -1.3781 -0.6064
11872SOL    HW239645   2.982   2.547   2.600 -0.6226 -1.8922 -1.6610
11873SOL     OW39646   7.284   8.948   3.447 -1.0643 -0.4339  0.2653
11873SOL    HW139647   7.307   8.898   3.531  1.8404 -0.4071 -0.4775
11873SOL    HW239648   7.279   9.046   3.466  1.1508 -0.2717  0.1221
11874SOL     OW39649   7.355   7.038   3.422  0.0044  0.2566 -0.3355
11874SOL    HW139650   7.447   7.016   3.454 -0.1754 -0.2439 -0.1605
11874SOL    HW239651   7.348   7.018   3.324 -0.6646 -2.1174  0.1675
11875SOL     OW39652   5.875   8.338   3.601  1.0392  0.2698 -0.1633
11875SOL    HW139653   5.776   8.354   3.595  0.7031 -1.3332  0.9423
11875SOL    HW239654   5.923   8.426   3.603 -0.4127  1.0637  0.1658
11876SOL     OW39655   9.193   7.943   2.343 -0.1239  0.2302 -0.1664
11876SOL    HW139656   9.225   7.927   2.250 -0.5438  1.8030 -0.5963
11876SOL    HW239657   9.269   7.931   2.407  0.5162  0.5864 -0.8570
11877SOL     OW39658   9.510   1.199   2.418  0.6320 -0.4257 -0.0039
11877SOL    HW139659   9.539   1.112   2.458  1.0852 -0.2961 -0.0501
11877SOL    HW239660   9.512   1.192   2.318  0.2495 -0.5004 -0.0062
11878SOL     OW39661   7.027   7.203   2.542  0.1477 -0.4692 -0.0586
11878SOL    HW139662   6.940   7.240   2.510  0.8953  1.3079 -0.1143
11878SOL    HW239663   7.023   7.103   2.542 -1.3099 -0.4432 -1.7103
11879SOL     OW39664   9.102   1.293   2.666  0.3701 -0.1074 -0.6982
11879SOL    HW139665   9.020   1.322   2.616 -0.1131  0.7544  0.5947
11879SOL    HW239666   9.183   1.317   2.613 -0.1765 -0.2887 -1.6347
11880SOL     OW39667   7.062   0.947   2.073  0.0130 -0.3258  1.0671
11880SOL    HW139668   7.126   1.005   2.123 -0.7174  0.7085  0.8270
11880SOL    HW239669   6.997   0.905   2.137 -0.2596  0.1565  1.1124
11881SOL     OW39670   3.949   9.903   1.596 -0.1471 -0.2132 -0.1395
11881SOL    HW139671   3.872   9.963   1.618  0.1625  0.8290 -1.7898
11881SOL    HW239672   3.914   9.815   1.566 -0.6511 -0.2553  0.5552
11883SOL     OW39673   8.032   5.368   0.752 -0.3244  0.2634  0.0453
11883SOL    HW139674   8.115   5.312   0.756 -0.3546  0.3103  1.6781
11883SOL    HW239675   8.034   5.424   0.669  1.4462  0.5235  0.2415
11884SOL     OW39676   2.990   5.827   1.684  0.2290 -0.8081  0.0241
11884SOL    HW139677   2.946   5.914   1.664  1.2108 -0.0010  1.2647
11884SOL    HW239678   3.045   5.799   1.605  0.6225  0.1534 -0.0508
11885SOL     OW39679   3.560   9.940   3.593 -0.0008  0.0490 -0.1880
11885SOL    HW139680   3.507   9.953   3.676  0.6511  2.0014 -0.0480
11885SOL    HW239681   3.546  10.017   3.532  0.6843 -0.6526 -1.2595
11886SOL     OW39682   2.372   2.911   2.454 -0.6564 -0.3761 -0.2068
11886SOL    HW139683   2.355   2.891   2.550  2.1820  1.7423  0.7919
11886SOL    HW239684   2.314   2.988   2.425 -1.0949 -0.6519 -0.0761
11887SOL     OW39685   2.159   7.891   0.974  0.2606  0.3432  0.1989
11887SOL    HW139686   2.163   7.813   0.912 -0.7376  0.5188 -0.1006
11887SOL    HW239687   2.105   7.964   0.932 -3.0654 -0.6892  2.4716
11891SOL     OW39688   6.678   0.340   3.839 -0.0868  0.6130  0.0916
11891SOL    HW139689   6.589   0.353   3.883 -0.3860  1.2001 -0.6635
11891SOL    HW239690   6.737   0.286   3.898 -1.7735 -1.9387 -0.4548
11892SOL     OW39691   0.713   6.357   2.760  0.5020 -0.8185 -0.0452
11892SOL    HW139692   0.618   6.327   2.758  0.0437  0.3640  2.3081
11892SOL    HW239693   0.756   6.337   2.672 -1.9860 -1.0925 -1.2455
11893SOL     OW39694   9.056   5.438   3.284  0.5311 -0.2430  0.7051
11893SOL    HW139695   9.021   5.477   3.369 -0.8759  0.4484 -0.1854
11893SOL    HW239696   9.083   5.511   3.222  2.1716 -0.7548  0.7940
11894SOL     OW39697   8.459   0.675   4.242  0.5829  0.0520  0.1037
11894SOL    HW139698   8.521   0.753   4.236  1.6578 -0.6527  1.7302
11894SOL    HW239699   8.409   0.679   4.329 -1.6317  0.5741 -1.1539
11895SOL     OW39700   8.207   2.299   3.730 -0.1837 -0.1160 -0.5606
11895SOL    HW139701   8.295   2.282   3.775 -0.8333  0.8615  1.1227
11895SOL    HW239702   8.134   2.253   3.781 -0.6397 -0.9702 -1.9846
11896SOL     OW39703   1.964   2.575   1.883  0.9916  0.2088  0.0769
11896SOL    HW139704   1.886   2.603   1.827  1.3541  0.9378 -0.0714
11896SOL    HW239705   2.030   2.650   1.888  1.4173 -0.1995  0.6730
11897SOL     OW39706   3.780   3.733   0.038 -0.1858  0.2353 -0.3012
11897SOL    HW139707   3.815   3.779  -0.043  1.0960  0.3887  0.3309
11897SOL    HW239708   3.844   3.662   0.067 -0.3300  0.5899  0.9235
11899SOL     OW39709   2.610   9.037   2.442  0.8663 -0.2329 -0.0657
11899SOL    HW139710   2.645   8.971   2.510  1.0673 -0.1261 -0.0660
11899SOL    HW239711   2.510   9.042   2.450  0.6500 -2.0413 -1.4241
11900SOL     OW39712   3.934   7.921   1.976  0.0233  0.4849 -0.1056
11900SOL    HW139713   3.895   7.859   1.908  1.6262 -0.1882 -0.4389
11900SOL    HW239714   3.987   7.867   2.043  0.6693  1.3977  0.1276
11901SOL     OW39715   2.979   4.591   1.082 -0.4544  0.4233 -0.4894
11901SOL    HW139716   3.076   4.591   1.106 -0.3002 -1.4752 -1.0042
11901SOL    HW239717   2.942   4.499   1.095 -2.1293  1.0651 -0.5650
11902SOL     OW39718   3.832   9.364   0.833 -0.0725  0.7344 -0.3001
11902SOL    HW139719   3.895   9.362   0.911  0.7687 -0.1257 -0.9873
11902SOL    HW239720   3.813   9.459   0.807 -0.8642  1.0425  1.3485
11903SOL     OW39721   7.461   9.979   3.482  0.6472  0.3198 -0.6702
11903SOL    HW139722   7.466  10.074   3.511  1.4645  1.3711 -4.0287
11903SOL    HW239723   7.552   9.948   3.453  0.0518 -0.9198 -1.2407
11905SOL     OW39724   8.636   7.832   4.039 -0.0283  0.5166 -0.0363
11905SOL    HW139725   8.588   7.917   4.061 -0.1875  0.3763  0.1533
11905SOL    HW239726   8.608   7.760   4.103  0.5594  0.4809  0.1799
11907SOL     OW39727   8.890   7.232   3.894  0.4899  0.6472  0.0308
11907SOL    HW139728   8.933   7.221   3.804 -0.3667  1.4336 -0.4830
11907SOL    HW239729   8.930   7.167   3.958  2.2931  1.1914 -0.4978
11908SOL     OW39730   8.824   6.856   0.685 -0.1536  0.0752  0.0694
11908SOL    HW139731   8.724   6.854   0.696 -0.0440 -2.3337  1.0259
11908SOL    HW239732   8.861   6.764   0.702  2.0443  0.4896 -2.2034
11909SOL     OW39733   3.276   0.307   0.466 -0.7601  0.1263 -0.0826
11909SOL    HW139734   3.355   0.320   0.405 -0.1286  0.1050  0.7248
11909SOL    HW239735   3.221   0.391   0.466 -0.1135  0.5545  0.2413
11912SOL     OW39736   7.450   7.776   2.475  0.5362  0.1227  0.1023
11912SOL    HW139737   7.406   7.737   2.394 -1.2830  1.1423  0.5602
11912SOL    HW239738   7.447   7.876   2.469  2.2960  0.2167  0.4362
11913SOL     OW39739   1.554   6.984   0.139  0.1582 -0.6099 -0.7587
11913SOL    HW139740   1.512   7.028   0.059  0.2094 -0.0213 -0.4667
11913SOL    HW239741   1.650   7.010   0.145 -0.5298  1.7017  1.1173
11914SOL     OW39742   1.652   2.157   0.718 -0.1786  0.1780  0.1483
11914SOL    HW139743   1.560   2.184   0.747 -1.1853 -3.5899  0.7610
11914SOL    HW239744   1.702   2.120   0.797  0.9755 -0.0490 -0.6777
11915SOL     OW39745   1.886   7.985   4.217  0.8613 -0.4975 -0.0482
11915SOL    HW139746   1.821   7.941   4.156  0.6271 -0.3710  0.1123
11915SOL    HW239747   1.840   8.012   4.301  0.9350  0.3483 -0.2819
11916SOL     OW39748   9.127   7.177   3.315  0.8131  0.0298 -0.2518
11916SOL    HW139749   9.194   7.202   3.385  1.0716 -1.2739 -0.0227
11916SOL    HW239750   9.140   7.234   3.234 -1.4325  3.6756  1.8194
11917SOL     OW39751   1.300   9.655   0.976  0.1696  0.1430 -0.3483
11917SOL    HW139752   1.395   9.648   1.007 -0.3927 -3.2451  0.7955
11917SOL    HW239753   1.253   9.724   1.031  0.9349 -1.0535  1.9001
11918SOL     OW39754   4.465   9.997   0.286 -0.0166  0.0125  0.0666
11918SOL    HW139755   4.476   9.925   0.218 -2.7399 -0.4804  0.1289
11918SOL    HW239756   4.478   9.959   0.378 -2.7794 -0.7341  0.1840
11919SOL     OW39757   4.321   9.283   3.650 -0.0075 -0.0407  0.1088
11919SOL    HW139758   4.297   9.295   3.746  0.0076  0.7437  0.0195
11919SOL    HW239759   4.379   9.202   3.640  0.1955  0.0174  0.7944
11920SOL     OW39760   0.101   2.574   3.605  0.1557  0.6011  0.2522
11920SOL    HW139761   0.044   2.655   3.590 -1.3073 -0.5270 -0.4479
11920SOL    HW239762   0.088   2.510   3.529  2.8062  0.5594 -0.2073
11922SOL     OW39763   5.912   8.009   2.287  0.0202  0.2083 -0.1862
11922SOL    HW139764   5.859   8.038   2.208 -1.7086  0.9581  1.2221
11922SOL    HW239765   5.939   7.914   2.276  0.7764  0.6262 -2.1806
11925SOL     OW39766   3.456   9.487   0.262  0.7243 -1.0885  0.6827
11925SOL    HW139767   3.454   9.581   0.296  1.7396 -1.2861  1.2794
11925SOL    HW239768   3.460   9.488   0.162  1.4589 -0.4866  0.7130
11926SOL     OW39769   8.914   8.246   3.284  0.1158  0.4968 -0.4097
11926SOL    HW139770   8.930   8.264   3.187  0.9323 -2.6123 -0.9120
11926SOL    HW239771   8.998   8.267   3.335 -0.0639  1.3935 -0.4747
11928SOL     OW39772   9.925   4.615   3.184  0.2333 -0.0161  0.3006
11928SOL    HW139773   9.897   4.526   3.148 -0.8771  0.4062  0.0871
11928SOL    HW239774   9.846   4.677   3.182  0.6046  0.5199  1.8574
11930SOL     OW39775   1.033   0.506   0.494 -0.0029 -0.8834  0.0499
11930SOL    HW139776   1.001   0.416   0.523 -1.1776  0.2480  2.3108
11930SOL    HW239777   1.127   0.519   0.525 -0.3289 -0.7603  1.0007
11931SOL     OW39778   9.378   8.631   4.212 -0.2887 -0.2245 -0.8041
11931SOL    HW139779   9.301   8.684   4.176 -0.2045  0.4937  0.0411
11931SOL    HW239780   9.349   8.538   4.232 -0.9694  0.0624 -0.4262
11933SOL     OW39781   4.359   7.624   2.891  0.1010 -0.1384  0.4356
11933SOL    HW139782   4.318   7.709   2.924 -1.6927 -1.1777  0.9656
11933SOL    HW239783   4.380   7.565   2.969  2.2354  0.1933  0.1318
11934SOL     OW39784   4.188   6.770   2.525 -0.6691 -0.2835 -0.1437
11934SOL    HW139785   4.091   6.786   2.509 -0.3313 -0.5579 -2.6002
11934SOL    HW239786   4.217   6.689   2.474  0.8168 -0.3130  0.7210
11935SOL     OW39787   2.322   6.365   1.639  0.5183  0.5007 -0.2130
11935SOL    HW139788   2.224   6.379   1.625  0.4638  0.3025 -0.0392
11935SOL    HW239789   2.361   6.324   1.557 -0.1252 -2.2801  0.8003
11936SOL     OW39790   2.207   7.125   3.845 -0.1879  0.5767  0.4000
11936SOL    HW139791   2.294   7.142   3.799 -0.3159  0.3011  0.0574
11936SOL    HW239792   2.133   7.167   3.793 -0.1632  1.5708  1.1564
11937SOL     OW39793   3.747   6.898   1.262 -0.2602 -0.0123  0.0160
11937SOL    HW139794   3.681   6.826   1.238 -1.0772  0.1134  1.7777
11937SOL    HW239795   3.709   6.987   1.240  0.0168 -0.0124 -0.4877
11938SOL     OW39796   9.501   7.888   0.829 -0.0946  0.2812 -0.3045
11938SOL    HW139797   9.562   7.814   0.802  1.4850  1.3410  0.2604
11938SOL    HW239798   9.479   7.944   0.750  1.0575  0.8841 -0.2075
11939SOL     OW39799   5.260   9.680   2.904  0.2596 -0.3805 -0.4837
11939SOL    HW139800   5.289   9.743   2.975  1.7018 -1.1701 -0.3590
11939SOL    HW239801   5.164   9.655   2.920  0.2348  0.3104  0.5348
11940SOL     OW39802   9.213   2.405   3.227 -0.2542  0.5097  0.3384
11940SOL    HW139803   9.170   2.314   3.231  0.1472  0.3301  0.5896
11940SOL    HW239804   9.148   2.473   3.259 -0.3956  0.2523  0.6066
11941SOL     OW39805   8.379   9.369   1.686 -0.5721 -0.1401 -0.9567
11941SOL    HW139806   8.282   9.383   1.666 -1.1734 -1.0341  1.1719
11941SOL    HW239807   8.422   9.317   1.613 -2.1358 -1.3307 -1.0375
11942SOL     OW39808   2.709   6.972   1.548 -0.4483  0.5134  0.2477
11942SOL    HW139809   2.636   6.913   1.512 -0.2254  1.1098 -1.2129
11942SOL    HW239810   2.773   6.994   1.475  0.8884  0.4754  1.3930
11943SOL     OW39811   0.619   5.837   1.199 -0.2243  0.6154 -0.0568
11943SOL    HW139812   0.592   5.743   1.179  0.1515  0.4540  0.1869
11943SOL    HW239813   0.641   5.845   1.296  1.5752  0.4974 -0.4281
11944SOL     OW39814   0.741   5.903   1.651 -0.4985 -0.7088 -0.1034
11944SOL    HW139815   0.663   5.905   1.714 -0.3048 -0.0409  0.1277
11944SOL    HW239816   0.826   5.909   1.704 -0.3673  1.0412 -0.4833
11945SOL     OW39817   2.759   7.627   1.317  0.2593 -0.3839 -0.2728
11945SOL    HW139818   2.855   7.608   1.338  0.5305 -0.6251 -1.6864
11945SOL    HW239819   2.743   7.726   1.323  0.9929 -0.1702 -1.5815
11946SOL     OW39820   1.166   0.446   1.396  0.0706 -0.9499 -0.2347
11946SOL    HW139821   1.111   0.506   1.454 -1.5857 -2.6577 -0.0184
11946SOL    HW239822   1.212   0.501   1.327  0.1259  0.8142  1.1499
11947SOL     OW39823   8.434   5.168   2.641  0.1983 -0.7069  0.0815
11947SOL    HW139824   8.365   5.142   2.708 -1.3815  0.8820 -0.8536
11947SOL    HW239825   8.490   5.242   2.678  0.7480 -1.3104  0.4601
11948SOL     OW39826   0.783   8.592   0.948 -0.2433  0.3628  0.3088
11948SOL    HW139827   0.839   8.608   0.867  4.3323 -0.6618  3.0522
11948SOL    HW239828   0.718   8.518   0.930  0.7413  0.1009 -2.3613
11949SOL     OW39829   9.264   6.950   2.468 -0.3881  0.4113 -0.1521
11949SOL    HW139830   9.294   6.946   2.373  0.1348  0.7634 -0.0080
11949SOL    HW239831   9.184   6.892   2.481  0.6965 -1.1763 -0.3712
11950SOL     OW39832   0.585   3.335   1.777  0.4078 -0.1583 -0.2626
11950SOL    HW139833   0.593   3.245   1.821  0.9466 -1.2017 -2.4519
11950SOL    HW239834   0.661   3.348   1.713 -0.7605  1.0147 -1.4374
11951SOL     OW39835   9.713   3.223   4.358 -0.3108 -0.7574  0.5391
11951SOL    HW139836   9.761   3.279   4.426  1.4626 -3.0309  1.2455
11951SOL    HW239837   9.761   3.229   4.271  0.0810 -1.4183  0.7052
11952SOL     OW39838   0.848   5.709   3.236 -0.3251 -0.3645  0.4651
11952SOL    HW139839   0.756   5.704   3.199  0.2373  1.2480 -1.2420
11952SOL    HW239840   0.902   5.631   3.202 -0.8665 -0.9397  0.9258
11953SOL     OW39841   8.562   7.627   0.629  0.0195  0.1468  0.5244
11953SOL    HW139842   8.599   7.539   0.659  0.8143  0.2601 -0.1183
11953SOL    HW239843   8.502   7.612   0.550  1.3554  0.3538 -0.5404
11954SOL     OW39844   2.859   8.370   4.426 -0.6437 -0.1573  0.3658
11954SOL    HW139845   2.921   8.393   4.351 -0.3801 -0.5056  0.4730
11954SOL    HW239846   2.911   8.326   4.500 -0.9867 -0.2768  0.5370
11955SOL     OW39847   7.255   1.497   1.932  0.5732 -0.3319 -0.0601
11955SOL    HW139848   7.202   1.500   1.848 -1.5123 -0.4425  1.2095
11955SOL    HW239849   7.220   1.565   1.996  3.2152  0.9185  0.1311
11957SOL     OW39850   1.164   4.184   1.701 -0.0831  0.0138 -0.1085
11957SOL    HW139851   1.238   4.158   1.639  0.3273  0.8646  0.0156
11957SOL    HW239852   1.080   4.136   1.674  0.1349  0.2427 -1.2237
11961SOL     OW39853   3.447   8.708   4.335  0.1038  0.5692 -0.1073
11961SOL    HW139854   3.379   8.640   4.306 -1.0299  1.1467  1.1223
11961SOL    HW239855   3.508   8.729   4.259 -0.5187 -0.6564 -0.9630
11964SOL     OW39856   5.677   1.002   4.175 -0.3448  0.2042  0.1818
11964SOL    HW139857   5.711   1.092   4.149 -1.0221  0.5650  0.5450
11964SOL    HW239858   5.749   0.952   4.224  0.2861  0.2527 -0.6857
11965SOL     OW39859   1.003   7.793   0.218  0.1753 -0.5095  0.0649
11965SOL    HW139860   0.923   7.833   0.264 -1.8436 -2.0347 -1.9840
11965SOL    HW239861   1.086   7.839   0.250 -1.5541  1.5504  1.7996
11966SOL     OW39862   1.202   7.209   2.831 -0.3037  0.3948 -0.5235
11966SOL    HW139863   1.151   7.124   2.817  0.8846 -0.7514  1.7837
11966SOL    HW239864   1.201   7.233   2.927  1.3386  1.7347 -0.8079
11967SOL     OW39865   2.465   3.554   0.608  0.2698 -0.1126  0.3116
11967SOL    HW139866   2.462   3.595   0.517 -0.4917 -1.5866 -0.3475
11967SOL    HW239867   2.535   3.600   0.663  0.3015  1.2127 -0.7975
11968SOL     OW39868   5.149   0.879   2.298 -0.1954  0.5684 -0.3093
11968SOL    HW139869   5.217   0.940   2.258  0.4021 -0.7123 -1.2921
11968SOL    HW239870   5.194   0.812   2.357 -0.5321 -0.5223 -1.2607
11970SOL     OW39871   9.836   3.744   2.592  0.1412  0.3185  0.4188
11970SOL    HW139872   9.796   3.697   2.514 -2.5128 -1.1478  2.5799
11970SOL    HW239873   9.887   3.678   2.648  0.1086  0.8971  1.1388
11971SOL     OW39874   2.376   1.110   0.231  0.2159 -0.2368  0.2159
11971SOL    HW139875   2.341   1.019   0.206 -2.0203  0.3780  0.9265
11971SOL    HW239876   2.362   1.124   0.329 -0.5064  1.3016 -0.0954
11973SOL     OW39877   0.460   7.495   0.846 -0.2266 -0.5682 -0.1795
11973SOL    HW139878   0.396   7.484   0.770 -0.4013 -0.8167  0.0020
11973SOL    HW239879   0.506   7.584   0.838  2.4866 -2.0864 -2.6151
11975SOL     OW39880   1.609   2.637   0.680  0.2523  0.1671 -0.5535
11975SOL    HW139881   1.534   2.596   0.629  0.7380 -1.0099 -0.3401
11975SOL    HW239882   1.574   2.711   0.739 -0.3377  1.4032 -2.4223
11976SOL     OW39883   0.234   5.019   0.416 -0.1438 -0.0588 -0.6303
11976SOL    HW139884   0.166   5.020   0.343  0.3523 -0.1795 -1.0943
11976SOL    HW239885   0.245   4.926   0.451  0.7156 -0.2692 -1.4347
11978SOL     OW39886   3.636   9.681   0.948  0.1591 -0.0824 -0.2225
11978SOL    HW139887   3.655   9.747   0.875  0.0953 -0.8281 -0.9220
11978SOL    HW239888   3.722   9.658   0.994  0.0292  1.2981  0.7345
11979SOL     OW39889   9.488   3.697   4.378 -0.7086 -0.8060  0.3478
11979SOL    HW139890   9.542   3.631   4.430 -0.2102 -0.2580  0.5427
11979SOL    HW239891   9.516   3.790   4.404 -0.3701 -0.5176 -0.9671
11980SOL     OW39892   4.341   6.259   1.196 -0.1717 -0.0224 -0.0203
11980SOL    HW139893   4.317   6.188   1.263  0.5007  1.2263  1.5748
11980SOL    HW239894   4.290   6.343   1.217  1.3009  0.8980 -0.0504
11981SOL     OW39895   8.474   9.556   2.513 -0.2736  0.2412 -0.9527
11981SOL    HW139896   8.482   9.632   2.578 -0.4975 -2.7154  2.7352
11981SOL    HW239897   8.377   9.540   2.492 -0.3215  0.2040 -0.7158
11982SOL     OW39898   6.635   0.710   4.120 -0.0340 -0.0578 -0.0586
11982SOL    HW139899   6.575   0.777   4.076 -0.3079  0.2573  0.7771
11982SOL    HW239900   6.675   0.751   4.203 -0.0572 -0.8728  0.3566
11983SOL     OW39901   2.560   7.782   1.116 -0.2677 -0.5588 -0.1235
11983SOL    HW139902   2.569   7.690   1.153 -0.0266 -0.2294  0.6499
11983SOL    HW239903   2.612   7.846   1.173 -0.2559  0.0170 -0.7814
11984SOL     OW39904   1.924   2.298   0.970 -0.1153  0.1026  0.1569
11984SOL    HW139905   1.853   2.231   0.949 -0.7971  0.6005  0.8426
11984SOL    HW239906   1.920   2.372   0.903  0.6603 -0.5492 -0.6208
11985SOL     OW39907   8.445   2.996   1.178 -0.1750  0.3400 -0.2219
11985SOL    HW139908   8.542   3.018   1.171 -0.1925 -0.0405 -1.6596
11985SOL    HW239909   8.401   3.009   1.089 -1.9839  3.1094  1.0080
11986SOL     OW39910   2.893   9.415   1.263  0.3634 -0.7987  0.0318
11986SOL    HW139911   2.942   9.490   1.218 -0.2448  0.2868  1.1282
11986SOL    HW239912   2.948   9.381   1.339 -0.5253  0.3813  1.2279
11987SOL     OW39913   9.857   2.552   0.872 -0.3191  0.4153 -0.0065
11987SOL    HW139914   9.859   2.554   0.972  0.2977 -0.4812 -0.0026
11987SOL    HW239915   9.811   2.469   0.840 -0.9709  0.9468 -0.4662
11988SOL     OW39916   4.032   8.912   1.983 -0.2655 -0.1346 -0.0699
11988SOL    HW139917   4.108   8.857   2.018  0.0618  0.8786  0.8484
11988SOL    HW239918   3.994   8.868   1.902  0.2776 -1.4718  0.3841
11989SOL     OW39919   4.959   9.079   1.683  0.4477  0.2381 -0.1070
11989SOL    HW139920   4.980   9.039   1.772  0.8813 -1.4643 -0.9674
11989SOL    HW239921   4.919   9.009   1.623  0.2318  1.3507 -1.2816
11990SOL     OW39922   2.659   1.898   3.179  0.2521 -0.1878  0.0380
11990SOL    HW139923   2.570   1.919   3.137  0.3754 -0.0146 -0.1383
11990SOL    HW239924   2.727   1.885   3.108  0.5330  0.4204  0.1864
11992SOL     OW39925   1.261   7.480   4.197 -0.5506  0.8687  0.2882
11992SOL    HW139926   1.299   7.405   4.144 -1.9985  0.5533 -0.3125
11992SOL    HW239927   1.222   7.549   4.136  0.2893  1.8670  0.8502
11993SOL     OW39928   4.259   7.831   4.170 -0.0710 -0.3795 -0.2020
11993SOL    HW139929   4.183   7.843   4.234  0.2964 -0.9563  0.3487
11993SOL    HW239930   4.237   7.875   4.083 -1.5302 -1.5240 -0.4331
11994SOL     OW39931   9.359   4.123   3.763 -0.1104 -0.0467 -0.2914
11994SOL    HW139932   9.304   4.204   3.781 -0.1408 -0.0428 -0.3944
11994SOL    HW239933   9.439   4.122   3.823  0.3751  0.5301 -0.9161
11995SOL     OW39934   4.011   7.573   1.201  0.1745 -0.2428  0.4626
11995SOL    HW139935   3.955   7.571   1.118 -1.0608  0.9804  1.2462
11995SOL    HW239936   4.014   7.482   1.242 -0.7193 -0.4492  0.0795
11996SOL     OW39937   9.302   1.814   4.322 -0.4535  0.0412  0.3043
11996SOL    HW139938   9.217   1.778   4.283 -0.0186 -0.0473 -0.5887
11996SOL    HW239939   9.309   1.912   4.301  0.5164 -0.3394 -1.1825
11997SOL     OW39940   0.557   7.019   1.476 -0.3214  0.3698  0.0364
11997SOL    HW139941   0.530   7.064   1.561  1.4789 -1.0780  1.4187
11997SOL    HW239942   0.655   6.998   1.479 -0.4956 -0.8567 -1.8696
11998SOL     OW39943   4.014   2.434   1.973  0.0384 -0.4444 -0.2744
11998SOL    HW139944   4.013   2.396   1.880 -1.6417  0.6692 -0.7318
11998SOL    HW239945   4.058   2.524   1.971 -1.1248  0.1381 -0.2388
11999SOL     OW39946   3.293   7.341   4.274 -0.4793 -0.1468  0.0039
11999SOL    HW139947   3.359   7.403   4.230 -0.6302 -0.6259 -0.8858
11999SOL    HW239948   3.245   7.288   4.205 -2.1503  0.5362  0.6316
12000SOL     OW39949   4.319   0.233   0.254 -0.1175  0.3543 -0.6101
12000SOL    HW139950   4.369   0.311   0.217  0.0152  0.2385 -0.6745
12000SOL    HW239951   4.383   0.160   0.277 -0.2661  0.1593 -0.8054
12001SOL     OW39952   9.123   1.533   0.201  0.6750  0.0522 -0.2328
12001SOL    HW139953   9.096   1.629   0.192  2.3504  0.7019  1.1696
12001SOL    HW239954   9.042   1.476   0.212 -0.3477  1.2873 -1.2292
12002SOL     OW39955   1.423   5.699   0.094  0.0114 -0.0478  0.0678
12002SOL    HW139956   1.435   5.707  -0.005 -1.5614  1.5586 -0.0005
12002SOL    HW239957   1.416   5.602   0.118 -1.3855 -0.3936 -1.6205
12003SOL     OW39958   4.912   9.082   3.485 -0.4633 -0.4854  0.3047
12003SOL    HW139959   4.924   8.989   3.521  0.1549 -0.5858 -0.1529
12003SOL    HW239960   4.989   9.139   3.515 -0.9886 -0.0438  0.8224
12004SOL     OW39961   8.222   0.261   3.520  0.6867  0.5122  0.6423
12004SOL    HW139962   8.311   0.229   3.488  0.4408  0.7398 -0.3005
12004SOL    HW239963   8.208   0.232   3.615  0.0291 -3.1703 -0.4865
12005SOL     OW39964   3.898   8.850   3.741 -0.0195 -0.6431 -0.1762
12005SOL    HW139965   3.973   8.821   3.799  1.0710  0.5527 -0.9618
12005SOL    HW239966   3.820   8.788   3.752  1.1388 -1.9727  0.5231
12006SOL     OW39967   0.291   1.026   3.142  0.4860  0.2823  0.0418
12006SOL    HW139968   0.361   1.097   3.130  0.6334  0.1364  0.0334
12006SOL    HW239969   0.254   1.032   3.234  0.7781  0.1192  0.1709
12008SOL     OW39970   0.796   0.860   1.683 -0.0589 -0.1115 -0.0093
12008SOL    HW139971   0.707   0.868   1.638  0.6651 -0.2562 -1.4625
12008SOL    HW239972   0.800   0.927   1.758 -0.9671  0.6868 -0.6500
12009SOL     OW39973   9.976   2.119   2.980  0.2780  0.0520  0.2679
12009SOL    HW139974   9.977   2.052   3.055 -1.5837  0.2000  0.4315
12009SOL    HW239975  10.027   2.201   3.007 -0.2535  0.0375  1.3055
12010SOL     OW39976   3.489   7.929   1.381 -0.0393 -0.8901  0.3732
12010SOL    HW139977   3.486   8.000   1.451 -1.1952 -0.6454  0.0886
12010SOL    HW239978   3.577   7.932   1.334 -0.1689  0.5371  0.1888
12011SOL     OW39979   1.950   9.895   1.750 -0.1375  0.2705  0.2623
12011SOL    HW139980   1.982   9.822   1.690  1.5997  1.4261 -0.2665
12011SOL    HW239981   1.893   9.958   1.697 -0.8747 -0.2035  0.4933
12012SOL     OW39982   9.821   7.533   3.600 -0.5162 -0.8240 -0.2303
12012SOL    HW139983   9.845   7.452   3.653  0.7527 -0.9974 -1.0443
12012SOL    HW239984   9.808   7.507   3.504  0.3110 -0.0015 -0.5721
12013SOL     OW39985   9.101   6.372   1.271  0.7487  0.4296  0.0175
12013SOL    HW139986   9.072   6.371   1.366  0.3394 -0.4392 -0.1043
12013SOL    HW239987   9.044   6.435   1.218 -0.1246 -0.3220  0.0311
12014SOL     OW39988   7.672   2.342   3.749  0.0104 -0.5207 -0.1016
12014SOL    HW139989   7.708   2.281   3.820 -0.1140  0.5292  0.8817
12014SOL    HW239990   7.648   2.289   3.668 -0.7175 -1.8581  0.9816
12015SOL     OW39991   9.295   1.102   4.204 -0.4687 -0.2148  0.3555
12015SOL    HW139992   9.340   1.148   4.127 -0.6359 -0.0189  0.3763
12015SOL    HW239993   9.202   1.078   4.178 -0.6624  0.2277  0.6489
12016SOL     OW39994   2.646   8.692   3.716  0.2069 -0.6211 -0.2486
12016SOL    HW139995   2.716   8.728   3.655 -0.5216  2.4950  0.6928
12016SOL    HW239996   2.685   8.676   3.807  0.0031 -0.1721 -0.0844
12017SOL     OW39997   9.781   4.138   4.304  0.3696  0.7049 -0.1264
12017SOL    HW139998   9.684   4.118   4.290 -0.0384  2.2005  0.5388
12017SOL    HW239999   9.793   4.233   4.333  2.1994  1.0603 -1.9357
12018SOL     OW40000   8.626   9.984   4.118 -0.3016 -0.6547  0.5174
12018SOL    HW140001   8.641   9.935   4.204  2.4622 -2.1264 -0.7655
12018SOL    HW240002   8.597   9.920   4.048 -0.3490  0.1745 -0.2256
12019SOL     OW40003   1.845   2.425   1.631 -0.3052 -0.2423  0.3389
12019SOL    HW140004   1.827   2.508   1.578  0.2714  1.3616  2.6144
12019SOL    HW240005   1.940   2.426   1.664  0.3272 -2.7649 -1.2457
12020SOL     OW40006   4.354   0.703   3.194 -0.1866  0.3765 -0.0312
12020SOL    HW140007   4.377   0.797   3.217  1.6017  0.5272 -2.1897
12020SOL    HW240008   4.384   0.642   3.267 -2.1820  1.5244  1.8017
12021SOL     OW40009   5.909   0.751   2.374 -0.5857  0.2273 -0.3768
12021SOL    HW140010   5.966   0.730   2.453  0.0736  0.5090 -0.7764
12021SOL    HW240011   5.821   0.788   2.405 -1.0576 -1.3994  0.2809
12022SOL     OW40012   2.753   6.115   2.356  0.1367  0.0470  0.1108
12022SOL    HW140013   2.776   6.033   2.304 -1.0025 -0.8065  0.9345
12022SOL    HW240014   2.730   6.189   2.294 -0.6870 -0.8116 -0.6233
12023SOL     OW40015   9.517   5.189   3.981  1.0807  0.1205  0.2798
12023SOL    HW140016   9.457   5.133   3.924 -0.2406  0.1538  1.5970
12023SOL    HW240017   9.584   5.130   4.026 -1.6857 -0.7992  3.3849
12024SOL     OW40018   2.575   3.099   2.488 -0.1302 -0.3593 -0.1592
12024SOL    HW140019   2.535   3.190   2.476 -0.7299 -0.8017 -1.7415
12024SOL    HW240020   2.506   3.029   2.469  0.5317 -1.1420  0.2573
12025SOL     OW40021   2.090   5.185   2.871 -0.0958 -0.8213 -0.4441
12025SOL    HW140022   2.129   5.154   2.958 -0.3018 -2.4473 -0.9227
12025SOL    HW240023   2.001   5.226   2.888  0.9051  1.0710  0.4026
12026SOL     OW40024   9.909   3.903   0.116  0.5308 -0.0224  0.1514
12026SOL    HW140025   9.884   3.929   0.209  2.8492  1.1288  0.4798
12026SOL    HW240026   9.847   3.948   0.051  0.1128  0.6975  1.0432
12027SOL     OW40027   9.189   9.901   4.255 -0.7957  0.1666  0.2601
12027SOL    HW140028   9.201   9.838   4.332 -0.1747  3.3346  2.8244
12027SOL    HW240029   9.267   9.893   4.193 -0.2479 -0.8815  1.0770
12029SOL     OW40030   1.894   8.825   1.341  0.1444  0.1620 -0.4043
12029SOL    HW140031   1.840   8.904   1.311 -0.3274 -0.1753 -0.4518
12029SOL    HW240032   1.924   8.839   1.436  2.2845  1.5773 -1.2447
12031SOL     OW40033   1.974   6.456   3.864 -0.1195  0.2003  0.4414
12031SOL    HW140034   1.899   6.393   3.887  0.5034 -1.0704 -0.9379
12031SOL    HW240035   2.051   6.404   3.829  0.7442  1.6793  0.1214
12032SOL     OW40036   0.904   9.721   2.497  0.0435  0.2563 -0.0136
12032SOL    HW140037   0.829   9.787   2.497 -0.2187 -0.0343 -0.0576
12032SOL    HW240038   0.972   9.747   2.565  0.1706  0.8209 -0.3479
12033SOL     OW40039   0.050   0.750   1.545 -0.3329 -0.3307 -0.0131
12033SOL    HW140040   0.023   0.833   1.495  1.0456  0.0481 -0.1454
12033SOL    HW240041   0.141   0.763   1.583 -0.6095 -1.3449  1.0035
12036SOL     OW40042   2.567   0.783   0.897 -0.5374 -0.4295 -0.0475
12036SOL    HW140043   2.523   0.854   0.841 -0.3229 -0.4819 -0.2863
12036SOL    HW240044   2.549   0.800   0.993 -1.3456 -0.6267 -0.1614
12037SOL     OW40045   8.926   4.434   3.603 -0.0919  0.4379 -0.0534
12037SOL    HW140046   8.887   4.343   3.590  0.3550  0.0806  1.0114
12037SOL    HW240047   8.911   4.464   3.697 -0.9926  1.8403 -0.6230
12038SOL     OW40048   2.918   8.485   0.570 -0.0178 -0.0075  0.2689
12038SOL    HW140049   2.998   8.544   0.557 -0.6023  0.6135 -0.6176
12038SOL    HW240050   2.921   8.445   0.661  0.3888  1.4018  0.9003
12039SOL     OW40051   5.033   5.432   1.307  0.3591 -0.3043  0.9152
12039SOL    HW140052   4.946   5.473   1.279  0.5947  0.0075  0.6260
12039SOL    HW240053   5.060   5.467   1.396  0.2042 -0.3789  0.9923
12041SOL     OW40054   3.327   7.462   0.858 -0.1382  0.2805  0.2532
12041SOL    HW140055   3.408   7.404   0.846 -0.8776 -1.5805  3.6002
12041SOL    HW240056   3.275   7.465   0.772  1.0433 -2.2792 -0.5962
12042SOL     OW40057   3.909   4.055   2.263  0.4993  0.6258  0.7054
12042SOL    HW140058   3.980   4.124   2.250  0.0984  0.4623 -2.9034
12042SOL    HW240059   3.820   4.100   2.273  0.2959  0.7122 -1.2193
12043SOL     OW40060   2.979   0.745   1.904  0.0733  0.2322  0.4731
12043SOL    HW140061   3.039   0.810   1.951 -0.9240  0.9962  0.6998
12043SOL    HW240062   2.889   0.744   1.949 -1.3784  2.0423 -2.2986
12044SOL     OW40063   1.479   0.374   3.657  0.1831  0.3423  0.4369
12044SOL    HW140064   1.548   0.341   3.593 -0.9141 -0.8351 -0.1500
12044SOL    HW240065   1.460   0.304   3.725 -1.4173  0.1186 -0.2132
12045SOL     OW40066   7.450   0.174   2.560  0.2263 -0.0724 -0.2820
12045SOL    HW140067   7.355   0.194   2.534 -0.0133 -0.7448  0.0854
12045SOL    HW240068   7.502   0.152   2.477  0.3788  1.5656 -0.6428
12046SOL     OW40069   2.327   6.867   2.028 -0.1200  0.5699 -0.1516
12046SOL    HW140070   2.298   6.797   1.963 -1.3250  0.5022  0.4391
12046SOL    HW240071   2.281   6.953   2.007 -0.5965  0.5229  0.6542
12047SOL     OW40072   1.398   8.187   3.020  0.2800  0.3375 -0.5450
12047SOL    HW140073   1.466   8.260   3.020  0.0787  0.5274 -0.3919
12047SOL    HW240074   1.386   8.153   2.927  1.8470 -0.8924 -0.3114
12048SOL     OW40075   2.867   8.248   0.391 -0.2970 -0.1927 -0.3453
12048SOL    HW140076   2.960   8.212   0.396 -0.5526 -0.8344 -0.1761
12048SOL    HW240077   2.861   8.333   0.443  0.0640 -0.4254  0.0753
12049SOL     OW40078   5.303   4.106   0.816 -0.1275 -0.6513  0.1107
12049SOL    HW140079   5.340   4.197   0.838 -1.4079  0.2764 -1.4639
12049SOL    HW240080   5.265   4.065   0.898  0.2635  0.3476  0.8034
12050SOL     OW40081   1.631   6.897   2.933  0.0387 -0.4514  0.1621
12050SOL    HW140082   1.661   6.987   2.965  0.2883 -0.1901 -0.7841
12050SOL    HW240083   1.548   6.908   2.878 -0.0493 -0.8233  0.2233
12051SOL     OW40084   4.747   9.811   4.099  0.7413  0.3022  0.4447
12051SOL    HW140085   4.806   9.822   4.179  0.7868 -0.4862  0.5297
12051SOL    HW240086   4.665   9.867   4.110  1.2433  1.0240  0.5501
12054SOL     OW40087   7.873   1.801   1.128 -0.4880 -0.1153 -0.3192
12054SOL    HW140088   7.870   1.874   1.059  0.2988 -0.7363 -1.0284
12054SOL    HW240089   7.968   1.783   1.153 -0.6993 -0.6762  0.0859
12055SOL     OW40090   6.653   9.383   3.458  0.1019 -0.0211  0.4045
12055SOL    HW140091   6.611   9.292   3.456  0.1259 -0.0668  1.5664
12055SOL    HW240092   6.752   9.374   3.454  0.0397  0.0699 -1.8932
12057SOL     OW40093   1.325   4.596   1.205  0.7803 -0.0139  0.1749
12057SOL    HW140094   1.239   4.564   1.244  0.6415  0.4026  0.2105
12057SOL    HW240095   1.399   4.537   1.235  0.6614  0.2619  1.0146
12058SOL     OW40096   0.090   1.895   0.869  0.3404 -0.5082 -0.6294
12058SOL    HW140097   0.166   1.954   0.896  0.1015  0.3764 -1.8240
12058SOL    HW240098   0.086   1.889   0.769 -2.5427  1.3473 -0.6756
12060SOL     OW40099   9.983   7.485   1.963  0.1097  0.0045 -0.0597
12060SOL    HW140100  10.031   7.572   1.964 -1.7042  1.0368 -0.1014
12060SOL    HW240101   9.894   7.496   1.918 -0.6005 -1.6158  0.8829
12061SOL     OW40102   8.621   3.138   2.894  0.5567 -0.1801 -0.5379
12061SOL    HW140103   8.540   3.175   2.941 -1.3395 -1.6110 -2.5540
12061SOL    HW240104   8.703   3.178   2.933 -1.1255  1.3722  1.5484
12062SOL     OW40105   4.380   3.965   0.749  0.2239  0.3602 -0.5119
12062SOL    HW140106   4.411   4.015   0.830  1.3657 -1.1963  0.0429
12062SOL    HW240107   4.323   3.888   0.778  0.7558 -0.2896 -1.1763
12064SOL     OW40108   2.903   6.742   1.848 -0.0363 -0.2990  0.1542
12064SOL    HW140109   2.873   6.662   1.797  1.0894  0.3990 -1.6640
12064SOL    HW240110   2.904   6.822   1.787 -1.2381  1.1367  1.9510
12066SOL     OW40111   0.847   3.187   3.920  0.1301 -0.1194  0.7657
12066SOL    HW140112   0.829   3.210   4.016 -1.1701  2.0657  0.0308
12066SOL    HW240113   0.861   3.271   3.867  0.7569 -1.2927 -0.9824
12067SOL     OW40114   9.711   9.315   1.654 -0.2684  0.1239  0.1193
12067SOL    HW140115   9.735   9.359   1.567 -1.1762 -1.0731 -0.7414
12067SOL    HW240116   9.793   9.274   1.693  0.7944  3.2792  1.3740
12068SOL     OW40117   4.318   5.910   2.591 -0.3731 -0.0553  0.5172
12068SOL    HW140118   4.272   5.899   2.679 -2.5308  2.0611 -0.2815
12068SOL    HW240119   4.258   5.875   2.518 -0.9862  3.1600 -0.5865
12069SOL     OW40120   0.920   0.929   2.733 -0.6250 -0.3982  0.2057
12069SOL    HW140121   1.000   0.878   2.701 -0.4519  0.4969 -0.7956
12069SOL    HW240122   0.949   0.993   2.805 -0.4163  0.0111 -0.2399
12070SOL     OW40123   2.003   7.220   2.969 -0.2698 -0.2914  0.2263
12070SOL    HW140124   2.035   7.287   3.036 -0.2080 -0.5782  0.4901
12070SOL    HW240125   2.045   7.238   2.880 -0.7680  0.4151  0.1362
12072SOL     OW40126   0.839   1.245   3.932  0.5861  0.4580  0.4007
12072SOL    HW140127   0.867   1.338   3.907 -1.1379  0.7763 -0.3610
12072SOL    HW240128   0.745   1.229   3.902  1.1453 -1.8215 -0.2017
12074SOL     OW40129   1.916   2.516   3.496  0.1061  0.5654 -0.1615
12074SOL    HW140130   1.970   2.458   3.435 -0.4618 -0.7091  0.5095
12074SOL    HW240131   1.906   2.607   3.456 -0.7614 -0.4062 -2.2395
12075SOL     OW40132   4.702   8.229   0.988 -0.3226  0.4405  0.3703
12075SOL    HW140133   4.784   8.253   0.936 -0.1946  0.2390  0.4766
12075SOL    HW240134   4.639   8.306   0.989 -0.9189 -0.0154 -1.2047
12076SOL     OW40135   0.981   9.825   1.172  0.2829  0.1374 -0.6889
12076SOL    HW140136   1.047   9.755   1.201 -0.3051 -0.2461 -0.2674
12076SOL    HW240137   0.988   9.837   1.073  0.6436 -0.2612 -0.7153
12077SOL     OW40138   0.906   4.091   1.620  0.0701  0.2289 -0.2628
12077SOL    HW140139   0.904   4.077   1.719  0.6032 -1.5822 -0.5008
12077SOL    HW240140   0.857   4.017   1.575  0.0881  0.8888 -1.3681
12079SOL     OW40141   9.979   1.921   2.016 -0.1028 -0.3051 -0.1350
12079SOL    HW140142   9.977   2.018   1.992 -1.3075  0.0039  1.1118
12079SOL    HW240143  10.056   1.903   2.077 -1.2984  0.4121  1.6622
12080SOL     OW40144   4.129   7.942   2.795  0.1508 -0.3943  0.3129
12080SOL    HW140145   4.181   8.022   2.827 -0.9447  0.3837  0.1742
12080SOL    HW240146   4.067   7.912   2.867 -1.0271  0.2521 -0.4110
12081SOL     OW40147   6.212   0.219   3.429 -0.2354  0.0359 -1.0126
12081SOL    HW140148   6.150   0.240   3.353  0.6075 -0.8311 -1.9487
12081SOL    HW240149   6.305   0.249   3.405  0.1889 -0.9875 -0.6656
12082SOL     OW40150   1.042   1.057   0.302  0.0579 -0.3315  0.1331
12082SOL    HW140151   1.105   1.071   0.226 -1.4852 -1.5087 -1.3937
12082SOL    HW240152   1.084   0.996   0.369  1.7513  1.3700  0.6687
12083SOL     OW40153   3.526   7.694   2.726  0.5732  0.2548 -0.1987
12083SOL    HW140154   3.507   7.607   2.772  0.7588  0.9027  1.1299
12083SOL    HW240155   3.611   7.733   2.761  0.3301  1.1267 -0.5524
12084SOL     OW40156   8.738   0.590   1.426 -0.4762  0.3397  0.3457
12084SOL    HW140157   8.789   0.512   1.462  2.7398  1.5041 -1.4791
12084SOL    HW240158   8.658   0.557   1.376 -0.0925 -1.6862  1.0031
12087SOL     OW40159   1.757   1.302   1.061  0.2167 -0.0592  0.1085
12087SOL    HW140160   1.705   1.371   1.112  0.7864  0.9478 -0.6512
12087SOL    HW240161   1.703   1.219   1.054 -1.1311  0.8349 -0.3195
12088SOL     OW40162   2.626   9.862   4.078 -0.0444 -0.9144 -0.1694
12088SOL    HW140163   2.688   9.847   4.154 -0.9925 -1.6020  0.4764
12088SOL    HW240164   2.678   9.893   3.998  0.8196  0.7933  1.0419
12089SOL     OW40165   6.620   0.435   4.440 -0.2620  0.2688 -0.1099
12089SOL    HW140166   6.569   0.360   4.483 -1.0004  0.8680  0.0723
12089SOL    HW240167   6.573   0.464   4.357 -0.8541  1.5895  0.6688
12090SOL     OW40168   2.919   1.616   0.310  0.6142  0.0383  0.3147
12090SOL    HW140169   2.903   1.553   0.234 -1.9928 -0.4200  1.1868
12090SOL    HW240170   3.012   1.604   0.345  1.8634  0.2748 -2.7973
12091SOL     OW40171   4.088   6.387   2.596  0.0486  0.3972 -0.2602
12091SOL    HW140172   4.186   6.382   2.615  0.0565  0.3447 -0.3113
12091SOL    HW240173   4.037   6.379   2.681  0.1011  0.8970 -0.1812
12092SOL     OW40174   4.336   8.878   2.301  0.3392 -0.4236 -0.2151
12092SOL    HW140175   4.300   8.819   2.228 -0.0916 -1.2076  0.6136
12092SOL    HW240176   4.433   8.860   2.314  0.7369  0.7052 -1.5227
12093SOL     OW40177   6.374   0.837   3.369 -0.3723  0.1243 -0.3518
12093SOL    HW140178   6.417   0.855   3.280  0.8794 -1.3587 -0.0822
12093SOL    HW240179   6.405   0.748   3.402 -0.1602  1.0336  1.9567
12094SOL     OW40180   0.660   3.641   2.424 -0.3364 -0.4257  0.4695
12094SOL    HW140181   0.628   3.607   2.336 -2.0847 -0.8638  1.2435
12094SOL    HW240182   0.750   3.603   2.444  1.0060  1.3223 -2.0467
12095SOL     OW40183   8.169   3.002   1.291  0.2738  0.3436  0.0100
12095SOL    HW140184   8.144   3.097   1.309 -0.4077  0.1667  0.0297
12095SOL    HW240185   8.266   2.996   1.268 -0.0106  1.2657 -1.5282
12097SOL     OW40186   7.921   2.765   3.172 -0.1626  0.0008 -0.3410
12097SOL    HW140187   7.917   2.758   3.272  1.2922  0.4090 -0.2457
12097SOL    HW240188   7.929   2.861   3.145 -1.0122 -0.0703 -0.8819
12098SOL     OW40189   1.949   2.278   3.304 -0.6705 -0.7235  0.4224
12098SOL    HW140190   2.015   2.341   3.265 -1.9753  0.4010 -0.0098
12098SOL    HW240191   1.990   2.187   3.312  0.9324 -0.0339  0.2277
12099SOL     OW40192   7.293   1.789   0.664  0.0989  0.3565 -0.4402
12099SOL    HW140193   7.322   1.874   0.621  0.1617  0.3854 -0.3409
12099SOL    HW240194   7.258   1.726   0.594 -1.3081  1.0176 -0.3607
12100SOL     OW40195   4.126   1.443   1.307 -0.3066 -0.0236 -0.1725
12100SOL    HW140196   4.027   1.458   1.306 -0.3327 -0.1669  0.1142
12100SOL    HW240197   4.147   1.358   1.259 -0.2105  0.6255 -1.3034
12103SOL     OW40198   7.436   3.704   0.071  0.2419  0.1124  0.4352
12103SOL    HW140199   7.532   3.723   0.049 -0.1300 -0.6241 -1.9561
12103SOL    HW240200   7.430   3.616   0.117  0.5311 -0.8669 -1.3433
12104SOL     OW40201   0.498   9.543   3.487  0.0836  0.4281  0.2854
12104SOL    HW140202   0.497   9.449   3.453 -1.8233  0.0590  1.2464
12104SOL    HW240203   0.414   9.560   3.539  1.5971  1.8519  2.3677
12105SOL     OW40204   3.236   8.941   4.374  0.4564  0.9930 -0.1528
12105SOL    HW140205   3.308   8.900   4.318  0.2079 -0.7179  0.7388
12105SOL    HW240206   3.243   8.907   4.468 -0.9534  1.5149  0.1603
12107SOL     OW40207   8.508   0.453   0.205  0.6736 -0.5055 -0.2815
12107SOL    HW140208   8.506   0.359   0.171 -0.1369 -0.5645 -0.0898
12107SOL    HW240209   8.565   0.458   0.287  0.3105 -0.9320 -0.0010
12108SOL     OW40210   2.610   7.322   0.566 -0.3234  0.3191  0.4170
12108SOL    HW140211   2.574   7.230   0.554  0.9341 -0.2973  1.1730
12108SOL    HW240212   2.601   7.349   0.662 -0.0605  0.6956  0.3369
12109SOL     OW40213   8.256   0.379   3.901  0.2658  0.8444 -0.5726
12109SOL    HW140214   8.348   0.355   3.870  0.7590  0.6218  1.0144
12109SOL    HW240215   8.248   0.478   3.909  0.2183  0.8874 -1.1545
12110SOL     OW40216   3.286   9.510   4.166 -0.2219 -0.3010 -0.4083
12110SOL    HW140217   3.191   9.532   4.189 -0.0121  0.5039 -0.2957
12110SOL    HW240218   3.293   9.413   4.144 -1.5478  0.1131 -2.8661
12111SOL     OW40219   4.524   5.761   1.302 -0.1969 -0.4146  0.0722
12111SOL    HW140220   4.444   5.786   1.356 -0.7421 -0.8525 -0.5289
12111SOL    HW240221   4.607   5.787   1.352 -0.6938 -0.7403  1.0821
12113SOL     OW40222   7.116   0.791   1.848 -0.5242 -1.0880  0.4154
12113SOL    HW140223   7.112   0.856   1.924 -0.4607  0.8837 -1.2225
12113SOL    HW240224   7.026   0.783   1.805 -0.2478 -1.1140 -0.1715
12114SOL     OW40225   6.434   9.817   1.687  0.4832 -0.3552  0.0652
12114SOL    HW140226   6.430   9.748   1.616 -0.4963  1.1056 -1.3414
12114SOL    HW240227   6.354   9.809   1.747 -1.2245  1.4163 -1.9077
12116SOL     OW40228   3.742   2.572   3.397 -0.4419  0.6280 -0.2903
12116SOL    HW140229   3.648   2.565   3.429 -1.0338  1.0442 -1.8965
12116SOL    HW240230   3.750   2.649   3.333  0.5886 -0.4703 -1.5278
12118SOL     OW40231   1.092   7.824   2.517  0.6993  0.8218 -0.0507
12118SOL    HW140232   0.995   7.849   2.507  0.6008  0.3003 -0.4426
12118SOL    HW240233   1.148   7.883   2.459  0.4968  0.3406 -0.7490
12119SOL     OW40234   1.264   8.839   4.091  1.0972 -0.2532  0.0409
12119SOL    HW140235   1.203   8.873   4.019  1.5550  2.3614  0.8272
12119SOL    HW240236   1.216   8.839   4.178  1.3805 -0.8025  0.1961
12120SOL     OW40237   1.769   5.338   1.500 -0.3342  0.4609 -0.0211
12120SOL    HW140238   1.735   5.255   1.545 -1.6578  0.4859 -0.9346
12120SOL    HW240239   1.846   5.375   1.551 -0.7365 -0.4635  1.2747
12121SOL     OW40240   3.369   2.640   3.907  0.2563 -0.0824  0.0758
12121SOL    HW140241   3.389   2.543   3.893  1.1879 -0.0263  0.9090
12121SOL    HW240242   3.400   2.692   3.828  1.5922 -0.2523  0.4589
12122SOL     OW40243   0.675   2.488   3.025  0.1739  0.4262 -0.0740
12122SOL    HW140244   0.603   2.446   3.082  0.2268  1.3041  0.6582
12122SOL    HW240245   0.633   2.551   2.960 -0.1037 -2.2436 -2.5880
12124SOL     OW40246   3.240   2.375   3.569 -0.1072  0.2823  0.0466
12124SOL    HW140247   3.189   2.289   3.561  0.1103  0.1311  0.2993
12124SOL    HW240248   3.197   2.445   3.511  0.8164 -0.5181 -1.6533
12125SOL     OW40249   9.139   3.280   3.191 -0.4101  0.4749 -0.5625
12125SOL    HW140250   9.228   3.236   3.198  0.3307  1.7620 -1.7975
12125SOL    HW240251   9.128   3.320   3.100 -2.2008  0.4506 -0.3892
12126SOL     OW40252   0.073   8.612   3.823  0.2843  0.5859  0.2087
12126SOL    HW140253   0.117   8.529   3.860  1.0588  0.5798 -0.7045
12126SOL    HW240254  -0.011   8.630   3.874  0.4056 -0.4363  0.8007
12127SOL     OW40255   1.606   9.505   3.846 -0.0023 -1.0831  0.1717
12127SOL    HW140256   1.665   9.436   3.888 -2.1270 -1.9828  1.7624
12127SOL    HW240257   1.593   9.581   3.910 -0.4757 -0.8415 -0.2087
12128SOL     OW40258   1.012   7.584   3.930 -0.3292  0.0415  0.3369
12128SOL    HW140259   0.967   7.650   3.990  2.0678  1.0593  1.0676
12128SOL    HW240260   0.986   7.602   3.835 -2.4260 -0.1999  0.8496
12129SOL     OW40261   2.991   1.445   3.614  0.1251 -0.2320 -0.3513
12129SOL    HW140262   3.032   1.378   3.677  0.0910  0.7070  0.6773
12129SOL    HW240263   3.062   1.480   3.553  0.6430  0.5807  0.7094
12130SOL     OW40264   2.771   5.163   4.321 -0.3674  0.8784 -0.2061
12130SOL    HW140265   2.738   5.168   4.227  1.4479  3.0988 -0.7835
12130SOL    HW240266   2.858   5.114   4.324  1.1471  3.4251 -0.2301
12131SOL     OW40267   4.574   7.769   1.004  0.3867  0.0477 -0.4203
12131SOL    HW140268   4.620   7.683   1.028  0.3050  0.1868  0.2297
12131SOL    HW240269   4.636   7.845   1.022  1.2955  0.0129 -3.0499
12132SOL     OW40270   1.955   7.421   1.282  0.2048  0.5869 -0.3147
12132SOL    HW140271   1.985   7.460   1.369  2.9678 -0.4460 -0.7580
12132SOL    HW240272   1.936   7.324   1.294 -0.0937  0.5945 -0.7223
12133SOL     OW40273   0.196   6.840   1.381 -0.2324  0.1559  0.0063
12133SOL    HW140274   0.120   6.901   1.406 -0.9603 -1.3104  1.4419
12133SOL    HW240275   0.279   6.894   1.370 -1.3395  1.7057 -0.9656
12134SOL     OW40276   0.544   2.389   4.206  0.2453 -0.4675 -0.0556
12134SOL    HW140277   0.586   2.298   4.208 -1.8406 -1.4907 -0.4461
12134SOL    HW240278   0.612   2.459   4.227  2.0996 -2.0468 -0.6948
12135SOL     OW40279   8.676   1.076   0.867  0.1010  0.2482 -0.3481
12135SOL    HW140280   8.703   1.011   0.796  0.1913 -0.6584  0.4945
12135SOL    HW240281   8.636   1.026   0.944 -1.0390  1.3140 -0.2320
12136SOL     OW40282   8.254   6.561   2.102  0.1691  0.0721 -0.1610
12136SOL    HW140283   8.304   6.545   2.017 -0.6435 -1.9601 -0.2612
12136SOL    HW240284   8.165   6.517   2.098 -0.2159  0.6671  1.4239
12137SOL     OW40285   0.923   3.365   0.957 -0.3552  0.7453 -0.0892
12137SOL    HW140286   0.946   3.319   1.043  0.0871  1.3526  0.1274
12137SOL    HW240287   0.849   3.430   0.973  0.4242  1.6101  0.0704
12139SOL     OW40288   1.970   1.939   2.618 -0.2408  0.5740  0.1472
12139SOL    HW140289   1.888   1.977   2.659  0.5273  1.7510  0.6044
12139SOL    HW240290   2.018   1.882   2.686 -0.4720  0.1883 -0.0077
12140SOL     OW40291   9.261   8.322   2.397  0.0104  0.1119 -0.2010
12140SOL    HW140292   9.278   8.291   2.303 -0.8961  0.8593 -0.6253
12140SOL    HW240293   9.163   8.318   2.416 -0.0335  1.8801  0.0198
12141SOL     OW40294   5.153   1.953   3.255 -0.0352 -0.2328  1.0144
12141SOL    HW140295   5.098   1.952   3.172 -0.4242 -2.1725  1.2890
12141SOL    HW240296   5.095   1.980   3.333  0.1824  0.9576  0.7720
12143SOL     OW40297   2.480   2.729   3.089  0.1133  0.1765 -0.1967
12143SOL    HW140298   2.438   2.752   3.177  0.3443 -0.2891  0.0319
12143SOL    HW240299   2.513   2.635   3.091  2.3424  0.9307  0.0719
12145SOL     OW40300   8.022   5.017   2.613 -0.1344 -0.3069  0.4943
12145SOL    HW140301   8.006   5.097   2.555 -0.1747 -0.9604 -0.4191
12145SOL    HW240302   7.995   5.037   2.707 -0.1143  0.7564  0.2749
12147SOL     OW40303   5.300   0.010   4.260 -0.0714 -0.1161 -0.2442
12147SOL    HW140304   5.390  -0.025   4.288 -0.6563  0.1557  2.0473
12147SOL    HW240305   5.269  -0.040   4.178  1.6817 -0.9412 -0.4271
12148SOL     OW40306   8.683   8.409   3.289  0.4301 -0.5902  0.1172
12148SOL    HW140307   8.753   8.338   3.289 -0.6475 -1.6719 -0.8383
12148SOL    HW240308   8.594   8.369   3.267 -0.1712  1.0716 -0.6169
12150SOL     OW40309   6.392   0.760   0.237 -0.1393 -0.4421 -0.1206
12150SOL    HW140310   6.453   0.722   0.307 -0.8459  0.4973  1.0234
12150SOL    HW240311   6.308   0.793   0.280 -1.0488 -0.8433 -1.5654
12151SOL     OW40312   3.265   6.894   3.113  0.0262 -0.0438  0.7659
12151SOL    HW140313   3.294   6.807   3.152 -0.6698 -0.9940 -0.7996
12151SOL    HW240314   3.345   6.942   3.076  0.7274  0.9728  3.5004
12155SOL     OW40315   3.748   6.979   2.241 -0.1644  0.4009  0.3113
12155SOL    HW140316   3.684   6.948   2.171  0.2439  2.2513 -0.9370
12155SOL    HW240317   3.838   6.993   2.200  0.1919  1.0781  1.3044
12157SOL     OW40318   8.318   6.046   4.012 -0.2206  0.2682  0.2884
12157SOL    HW140319   8.237   6.008   3.968 -0.5247  0.6205  0.5417
12157SOL    HW240320   8.354   6.121   3.957  1.2077 -1.2692 -0.9532
12158SOL     OW40321   9.440   0.881   4.372  0.2042 -0.0946 -0.2086
12158SOL    HW140322   9.397   0.791   4.385  0.0478 -0.2824 -1.8748
12158SOL    HW240323   9.370   0.949   4.353  0.2726  0.5169  1.7199
12161SOL     OW40324   8.887   7.425   1.502 -0.5257  0.4935  0.2958
12161SOL    HW140325   8.814   7.462   1.444  0.5610  1.0745 -0.7262
12161SOL    HW240326   8.875   7.326   1.512 -1.1812  0.5135 -0.2650
12163SOL     OW40327   1.623   9.482   3.568 -0.3167 -0.1760 -0.1586
12163SOL    HW140328   1.606   9.494   3.666  2.0263 -2.0408  0.5121
12163SOL    HW240329   1.612   9.570   3.522  0.9089  1.2477  2.1476
12166SOL     OW40330   2.336   8.229   3.012 -0.1256  0.1868 -0.0600
12166SOL    HW140331   2.347   8.323   3.043  0.8935  0.2325 -0.5584
12166SOL    HW240332   2.312   8.171   3.090 -0.0879  0.7412  0.3625
12167SOL     OW40333   8.519   8.999   4.086  0.5751  0.6004  0.1872
12167SOL    HW140334   8.427   9.029   4.111  0.5017  1.5155 -1.1334
12167SOL    HW240335   8.569   9.076   4.048  1.2092 -0.3982 -1.0092
12168SOL     OW40336   8.527   9.366   0.991 -0.0975 -0.2107 -0.2670
12168SOL    HW140337   8.599   9.299   0.973 -0.6010 -0.5189 -1.1925
12168SOL    HW240338   8.544   9.449   0.938 -0.5240 -0.3629 -0.6495
12169SOL     OW40339   4.855   8.830   4.117 -0.1606 -0.5743 -0.0978
12169SOL    HW140340   4.833   8.836   4.214  0.6567 -1.3654  0.1388
12169SOL    HW240341   4.862   8.922   4.078  2.3571 -0.1710  1.2354
12170SOL     OW40342   3.131   7.840   2.821  0.4131 -0.2108  0.5666
12170SOL    HW140343   3.044   7.827   2.773  1.2269 -1.6979 -0.5490
12170SOL    HW240344   3.206   7.833   2.755  1.5197 -1.5951  1.9601
12171SOL     OW40345   8.894   2.382   2.885  0.3641  0.3888 -0.1223
12171SOL    HW140346   8.860   2.361   2.794  1.2942  0.6106 -0.5302
12171SOL    HW240347   8.898   2.481   2.898 -2.0010  0.3701  1.0315
12173SOL     OW40348   7.689   1.264   1.347  0.4843 -0.1974 -0.1710
12173SOL    HW140349   7.658   1.327   1.276  1.8486  2.0058  1.1191
12173SOL    HW240350   7.634   1.276   1.430  0.3941 -1.0953 -0.0956
12174SOL     OW40351   0.445   0.788   4.305  0.1243 -0.6624  0.1954
12174SOL    HW140352   0.477   0.740   4.387 -2.6575 -0.3650  1.5030
12174SOL    HW240353   0.428   0.884   4.328 -0.0511 -0.4355 -0.8917
12175SOL     OW40354   3.888   7.795   2.321  0.1426  0.6376  0.3151
12175SOL    HW140355   3.814   7.861   2.332  0.5148  1.1731 -0.3200
12175SOL    HW240356   3.976   7.843   2.324  0.4167  0.1625 -0.0691
12176SOL     OW40357   1.043   9.868   0.165  0.0201  0.0125 -0.0498
12176SOL    HW140358   1.078   9.795   0.224  1.7526 -0.7133 -1.9607
12176SOL    HW240359   0.987   9.828   0.093 -1.7728  0.8790  0.8213
12177SOL     OW40360   9.658   8.416   2.435 -0.6684  0.1145 -0.4941
12177SOL    HW140361   9.757   8.414   2.450 -0.6534  1.0794 -0.3923
12177SOL    HW240362   9.630   8.335   2.384 -0.1686 -1.3193  1.4873
12178SOL     OW40363   8.954   3.948   1.335  0.4351 -0.1891  0.0969
12178SOL    HW140364   9.053   3.958   1.327  0.3902  1.4827  1.5711
12178SOL    HW240365   8.929   3.942   1.431 -1.0061  0.4329 -0.2394
12179SOL     OW40366   1.844   1.175   4.311 -0.3952  0.0598 -0.0773
12179SOL    HW140367   1.866   1.089   4.359  1.0950  1.1117  1.1886
12179SOL    HW240368   1.797   1.237   4.375  0.5407  1.0259 -0.3174
12180SOL     OW40369   2.626   4.846   2.044  0.6859  0.5987  0.0741
12180SOL    HW140370   2.609   4.751   2.069  1.1293 -0.0445 -1.9981
12180SOL    HW240371   2.699   4.883   2.102  0.2909 -0.2082  1.1064
12181SOL     OW40372   2.963   8.673   3.051  0.3357  0.2232  0.1525
12181SOL    HW140373   2.968   8.682   3.151  0.7131  1.1749  0.0480
12181SOL    HW240374   3.011   8.590   3.023  0.2523 -0.0355  0.7573
12182SOL     OW40375   2.312   3.282   3.953 -0.9287 -0.1310  0.6940
12182SOL    HW140376   2.283   3.288   3.858 -0.1817  0.4931  0.4974
12182SOL    HW240377   2.403   3.241   3.958 -0.1738  1.4938  0.9739
12184SOL     OW40378   9.238   5.751   2.019 -0.3099  0.1722  0.1213
12184SOL    HW140379   9.312   5.817   2.006  0.4210 -0.4221  1.1790
12184SOL    HW240380   9.265   5.663   1.981 -0.7906  0.1663 -0.2000
12185SOL     OW40381   2.480   3.675   2.165  0.1314 -0.4415 -0.9228
12185SOL    HW140382   2.422   3.742   2.211  0.4318 -0.4793 -0.4922
12185SOL    HW240383   2.436   3.585   2.170  0.3261 -0.5096 -0.4128
12186SOL     OW40384   4.261   3.411   1.532  0.5385 -0.3614 -0.0472
12186SOL    HW140385   4.257   3.315   1.504  0.2071 -1.3110  3.0249
12186SOL    HW240386   4.306   3.418   1.621 -0.5089  2.2152  0.3381
12187SOL     OW40387   8.392   2.978   0.199  0.2602  0.2446 -0.3405
12187SOL    HW140388   8.341   2.919   0.137  0.4839 -0.8430  0.4837
12187SOL    HW240389   8.481   2.937   0.219 -0.0208  0.3088  1.0959
12188SOL     OW40390   9.943   2.827   1.196  0.3426  0.3450 -0.2293
12188SOL    HW140391   9.977   2.859   1.108  2.0535 -0.5663  0.0799
12188SOL    HW240392   9.928   2.728   1.192  1.1615  0.1770  0.7271
12189SOL     OW40393   4.327   2.218   0.735 -0.5019 -0.1254  0.5572
12189SOL    HW140394   4.375   2.131   0.745  0.8217  0.6842  1.4141
12189SOL    HW240395   4.329   2.246   0.639  0.9816  0.0264  0.6173
12190SOL     OW40396   8.172   5.526   0.455 -0.1950 -0.2113 -0.5878
12190SOL    HW140397   8.174   5.445   0.395  0.6312  1.5177 -2.9558
12190SOL    HW240398   8.263   5.544   0.491 -0.3377 -0.2089 -0.2277
12191SOL     OW40399   8.058   2.584   3.639  0.0872  0.3544  0.1537
12191SOL    HW140400   8.026   2.518   3.572 -0.7926  0.8385  0.0953
12191SOL    HW240401   8.019   2.562   3.729 -1.3321  1.6147 -0.1445
12192SOL     OW40402   8.633   2.253   1.044  0.0052 -0.2064 -0.1867
12192SOL    HW140403   8.715   2.290   1.000  1.0246  0.2518  2.0309
12192SOL    HW240404   8.578   2.327   1.082  0.6658 -0.7521  1.8954
12193SOL     OW40405   8.980   8.050   0.309  0.5798 -0.1316 -0.0931
12193SOL    HW140406   8.903   8.061   0.246 -0.6065 -0.9081  1.1931
12193SOL    HW240407   9.065   8.045   0.257 -0.2184  0.8627 -1.5274
12195SOL     OW40408   0.634   7.747   3.839  0.6431 -0.1280  0.4894
12195SOL    HW140409   0.641   7.845   3.824  2.0436 -0.3500 -0.3815
12195SOL    HW240410   0.591   7.704   3.760 -1.1524 -0.0710  1.4127
12196SOL     OW40411   3.502   6.145   3.746  0.1863 -0.7127  0.4264
12196SOL    HW140412   3.402   6.146   3.748  0.1515 -0.8489 -0.6189
12196SOL    HW240413   3.533   6.158   3.651  1.1688  0.2362  0.8717
12197SOL     OW40414   9.913   5.389   2.764  0.0030  0.0304  0.3693
12197SOL    HW140415   9.832   5.354   2.717  0.2884  0.5286 -0.4912
12197SOL    HW240416   9.948   5.319   2.827 -0.2004 -0.7446 -0.3757
12198SOL     OW40417   8.471   6.848   2.817  0.0646  0.2777  0.2075
12198SOL    HW140418   8.465   6.948   2.819 -2.1524  0.2050 -1.1769
12198SOL    HW240419   8.486   6.814   2.910 -3.0588  1.7353  1.3511
12201SOL     OW40420   8.209   4.804   0.304  0.0923  0.5929 -0.0203
12201SOL    HW140421   8.220   4.897   0.339  4.9190  0.9216 -1.9735
12201SOL    HW240422   8.222   4.803   0.205  0.3629 -2.1508 -0.0048
12202SOL     OW40423   0.704   2.709   3.621 -0.1342  0.0562  0.0095
12202SOL    HW140424   0.746   2.686   3.709  0.5524  1.1052 -0.0351
12202SOL    HW240425   0.676   2.625   3.574  0.8003 -0.5826  0.5885
12203SOL     OW40426   4.713   8.689   3.570 -0.4028 -0.4599 -0.6181
12203SOL    HW140427   4.796   8.745   3.574 -0.5631 -0.2858  0.4406
12203SOL    HW240428   4.721   8.613   3.634 -2.2874  1.2760  1.7686
12204SOL     OW40429   8.530   9.487   2.028  0.4945 -0.3855  0.3144
12204SOL    HW140430   8.514   9.397   1.989  0.2439 -1.0064  1.7928
12204SOL    HW240431   8.456   9.549   2.001 -0.4574 -1.2073  1.0134
12205SOL     OW40432   4.980   3.190   2.904  0.2959 -0.2418 -0.3614
12205SOL    HW140433   4.967   3.213   2.808 -0.1230  1.4873  0.1022
12205SOL    HW240434   4.938   3.260   2.962  2.4667 -0.0636  1.0968
12206SOL     OW40435   1.799   1.449   2.001 -0.0039 -0.3230 -0.0196
12206SOL    HW140436   1.827   1.538   2.038  1.1385 -1.2214  1.3433
12206SOL    HW240437   1.879   1.390   1.992 -0.7096 -1.1012 -1.2386
12208SOL     OW40438   2.487   2.456   3.375  0.3604 -0.0948 -0.1178
12208SOL    HW140439   2.455   2.482   3.466 -1.5963 -2.3412 -0.0888
12208SOL    HW240440   2.539   2.371   3.382 -1.1156 -1.1168 -1.2420
12209SOL     OW40441   1.881   3.033   0.537  0.5456 -0.1780 -0.1411
12209SOL    HW140442   1.924   3.020   0.627  0.4961  0.6803  0.0121
12209SOL    HW240443   1.930   2.978   0.469  2.9986  2.1136 -0.2806
12210SOL     OW40444   8.030   7.875   1.805  0.4332  0.2059 -0.4471
12210SOL    HW140445   8.098   7.905   1.739  2.3747  0.4403  1.6135
12210SOL    HW240446   8.045   7.922   1.893 -0.3269 -2.1730  1.0131
12211SOL     OW40447   7.591   9.931   4.287 -0.0336 -0.1438  0.0183
12211SOL    HW140448   7.536   9.879   4.221 -2.1894  1.7880  0.2499
12211SOL    HW240449   7.643  10.001   4.239 -1.2598  0.9697  0.2865
12212SOL     OW40450   1.434   0.341   1.405 -0.6263 -0.0017  0.3738
12212SOL    HW140451   1.345   0.384   1.419 -1.6428 -1.0428 -2.3986
12212SOL    HW240452   1.467   0.363   1.313  0.9845 -1.3132  0.6149
12213SOL     OW40453   1.667   0.317   0.743 -0.3628  0.4989 -0.4678
12213SOL    HW140454   1.650   0.341   0.648 -1.1068  1.8407 -0.0148
12213SOL    HW240455   1.766   0.307   0.758 -0.2946 -0.4991 -1.5450
12214SOL     OW40456   9.904   6.924   1.301 -0.2986  0.2706  0.1059
12214SOL    HW140457   9.906   6.831   1.266 -0.3556  0.2546  0.1426
12214SOL    HW240458   9.983   6.975   1.266 -0.0141  0.0739  0.4554
12215SOL     OW40459   8.349   8.848   4.309  0.0616 -0.5328  0.4124
12215SOL    HW140460   8.446   8.837   4.329  0.2238 -1.5952 -0.8760
12215SOL    HW240461   8.317   8.770   4.255 -1.3976  0.0441  0.4144
12216SOL     OW40462   4.349   7.320   2.033  0.1236 -0.0364 -0.4190
12216SOL    HW140463   4.395   7.353   2.115 -1.9367  1.6085  0.1462
12216SOL    HW240464   4.399   7.351   1.952 -0.5087  2.6807  0.1579
12217SOL     OW40465   9.205   0.791   2.715  0.6722  0.2331  0.1084
12217SOL    HW140466   9.212   0.867   2.650 -0.1423  0.8235  0.7046
12217SOL    HW240467   9.193   0.827   2.808 -1.0651 -0.6241  0.2357
12218SOL     OW40468   4.925   1.406   1.515 -0.1611  0.2035  0.7084
12218SOL    HW140469   4.929   1.319   1.564  2.0093 -1.8074 -2.8504
12218SOL    HW240470   5.013   1.452   1.521 -0.0209  0.1689 -0.8114
12219SOL     OW40471   0.736   3.594   4.330  0.1370 -0.2420  0.3168
12219SOL    HW140472   0.833   3.616   4.340  0.2428 -0.2918 -0.5574
12219SOL    HW240473   0.715   3.513   4.385  0.4043  0.2739  1.1718
12220SOL     OW40474   1.678   8.446   3.469  0.2106 -0.3224  0.1420
12220SOL    HW140475   1.687   8.387   3.389 -0.0298  1.6453 -1.3623
12220SOL    HW240476   1.586   8.486   3.471  0.6454  0.6622  0.6750
12221SOL     OW40477   6.692   9.394   2.675  0.1323  0.0706 -0.3872
12221SOL    HW140478   6.625   9.468   2.678 -0.1095 -0.1432 -0.4094
12221SOL    HW240479   6.772   9.422   2.623  1.0679  1.1588  1.5898
12222SOL     OW40480   3.054   9.280   2.669  0.4011 -0.3753 -0.3552
12222SOL    HW140481   2.993   9.208   2.636  0.5932 -0.0175 -1.5120
12222SOL    HW240482   3.000   9.354   2.710  0.0506 -0.0752 -1.3424
12223SOL     OW40483   1.211   1.311   0.609 -0.1105 -0.3922  0.0928
12223SOL    HW140484   1.156   1.386   0.648 -0.2110 -0.7608  0.6653
12223SOL    HW240485   1.196   1.228   0.662  1.3349 -0.3965  0.5187
12226SOL     OW40486   9.848   3.369   3.724  0.0302  0.0129 -0.2135
12226SOL    HW140487   9.791   3.326   3.793  0.5896  0.7482  0.7343
12226SOL    HW240488   9.938   3.326   3.724  0.3399  0.6507  0.1941
12227SOL     OW40489   1.728   9.485   2.762  0.1854  0.5599  0.2364
12227SOL    HW140490   1.732   9.478   2.862  0.9652 -0.9863  0.1103
12227SOL    HW240491   1.765   9.574   2.733 -0.8384  1.3763  1.3539
12228SOL     OW40492   2.116   0.304   2.743 -0.1869  0.0432  0.0352
12228SOL    HW140493   2.180   0.295   2.820  0.1547  0.9513 -0.1319
12228SOL    HW240494   2.023   0.286   2.774  0.3476 -3.3560 -0.1478
12229SOL     OW40495   2.682   0.668   1.667 -0.0792  0.1160 -0.0594
12229SOL    HW140496   2.633   0.661   1.754  2.3639  1.9049  1.5248
12229SOL    HW240497   2.763   0.610   1.670  1.0003  1.5756 -0.4120
12230SOL     OW40498   4.712   1.369   2.868  0.7607  0.1164  0.4219
12230SOL    HW140499   4.645   1.429   2.825  0.4873 -0.1882  0.4188
12230SOL    HW240500   4.786   1.423   2.907  0.3793  0.4701  0.6532
12231SOL     OW40501   4.807   7.544   3.734  0.4718 -0.4206 -0.1327
12231SOL    HW140502   4.757   7.629   3.751  0.6906 -0.0077 -1.5015
12231SOL    HW240503   4.905   7.560   3.748  0.4909 -0.5033 -0.1790
12232SOL     OW40504   8.259   4.929   3.136 -0.1380  0.0004 -0.0379
12232SOL    HW140505   8.186   4.992   3.162  0.3292  1.2963 -1.7904
12232SOL    HW240506   8.334   4.935   3.202 -0.9545 -0.2327  0.9251
12233SOL     OW40507   5.706   1.428   3.805  0.0470 -0.0370  0.3488
12233SOL    HW140508   5.659   1.439   3.717  0.5137 -2.4491 -0.2576
12233SOL    HW240509   5.792   1.478   3.804  1.1269 -1.8338 -1.4622
12234SOL     OW40510   3.547   2.433   2.634  0.1575  0.0658 -0.3878
12234SOL    HW140511   3.585   2.357   2.688  0.6117 -0.7366 -1.8013
12234SOL    HW240512   3.569   2.419   2.537  0.8266  2.3730 -0.5948
12235SOL     OW40513   9.368   3.074   3.262  0.5203  0.2921  0.0093
12235SOL    HW140514   9.456   3.073   3.216  0.5341  0.5198  0.0329
12235SOL    HW240515   9.337   2.980   3.277  1.2101  0.1915  0.8678
12236SOL     OW40516   3.006   0.687   3.567 -0.2290  0.0355  0.0004
12236SOL    HW140517   3.096   0.646   3.555  0.1591  0.7490  0.4580
12236SOL    HW240518   3.001   0.733   3.655 -0.3429  1.7381 -0.8732
12237SOL     OW40519   0.692   4.085   4.280 -0.5347 -0.1710  0.6697
12237SOL    HW140520   0.632   4.005   4.281 -0.0801 -0.5060  1.2577
12237SOL    HW240521   0.753   4.080   4.201 -1.8467  0.5942 -0.4050
12238SOL     OW40522   0.975   1.783   2.151  0.3075  0.2154 -0.0338
12238SOL    HW140523   0.905   1.854   2.157 -1.1723 -1.2838  1.0248
12238SOL    HW240524   1.001   1.770   2.055  2.0454  3.5009 -0.0819
12239SOL     OW40525   3.547   0.892   4.416 -0.1627 -0.3607  0.0386
12239SOL    HW140526   3.601   0.925   4.493 -1.0564 -0.0465  0.5404
12239SOL    HW240527   3.505   0.970   4.368 -0.4513 -0.6193 -0.1366
12240SOL     OW40528   0.277   7.365   4.326 -0.7132 -0.6205  0.1127
12240SOL    HW140529   0.276   7.285   4.386 -0.7812 -1.0967 -0.5114
12240SOL    HW240530   0.363   7.367   4.275  0.7661  1.5557  2.5481
12241SOL     OW40531   6.671   0.918   0.282 -0.3941  0.2477 -0.3058
12241SOL    HW140532   6.574   0.938   0.270  0.0921  2.7712 -0.3762
12241SOL    HW240533   6.713   0.900   0.193 -0.7300 -0.5169 -0.3086
12242SOL     OW40534   9.612   1.550   0.114 -0.3036  0.2141  0.3651
12242SOL    HW140535   9.600   1.483   0.041  0.3025  0.7330 -0.2221
12242SOL    HW240536   9.599   1.642   0.077 -2.1365  0.3934  1.3781
12243SOL     OW40537   3.326   3.461   3.934 -0.6078 -0.4360  0.2141
12243SOL    HW140538   3.396   3.390   3.939  0.0572 -0.0106 -2.1251
12243SOL    HW240539   3.241   3.422   3.898 -0.3980 -0.1943 -0.5723
12245SOL     OW40540   0.759   8.301   0.111 -0.3022  0.4307  0.0996
12245SOL    HW140541   0.764   8.355   0.195 -1.4451  0.4127  0.1824
12245SOL    HW240542   0.697   8.346   0.046  0.5685  0.4440 -0.7377
12246SOL     OW40543   3.471   6.738   1.990  0.1771 -0.3468 -1.0240
12246SOL    HW140544   3.396   6.751   1.925 -2.6254 -2.5381  1.6050
12246SOL    HW240545   3.512   6.827   2.012 -1.2343  0.8340 -2.9861
12247SOL     OW40546   9.302   0.702   0.775  0.3609  0.1173 -0.2306
12247SOL    HW140547   9.328   0.659   0.688 -0.5393 -1.8907  0.4721
12247SOL    HW240548   9.371   0.770   0.801  0.0977  1.5576 -3.0538
12248SOL     OW40549   8.347   8.993   2.064 -0.5457  0.2102  0.0569
12248SOL    HW140550   8.415   8.965   2.132 -1.0463 -1.3741 -0.0852
12248SOL    HW240551   8.366   9.087   2.035  0.9643  0.1424  0.7811
12249SOL     OW40552   0.592   4.946   3.513 -0.4398  0.5026 -0.5301
12249SOL    HW140553   0.647   4.863   3.502 -1.4546 -0.1248 -0.8933
12249SOL    HW240554   0.593   4.998   3.428 -1.5103 -0.1891 -0.9685
12250SOL     OW40555   9.202   6.303   0.053  0.2318 -0.1621  0.0668
12250SOL    HW140556   9.165   6.230  -0.005  0.8971 -0.2338 -0.2675
12250SOL    HW240557   9.178   6.285   0.148  0.9395 -1.1508  0.0676
12251SOL     OW40558   6.740   0.867   4.358 -0.5227 -0.0588 -0.4829
12251SOL    HW140559   6.738   0.938   4.288  1.6806  1.1930  0.6751
12251SOL    HW240560   6.710   0.906   4.445  1.9354 -0.1913  0.4466
12252SOL     OW40561   2.900   1.952   1.790  0.0213 -0.1962 -0.3274
12252SOL    HW140562   2.985   2.004   1.799 -0.3216  0.4692 -0.8402
12252SOL    HW240563   2.890   1.922   1.695  0.4390 -1.6044  0.0583
12254SOL     OW40564   1.340   5.971   1.982 -0.2393 -0.0247  0.2459
12254SOL    HW140565   1.340   5.955   1.883  0.9343  1.4550 -0.0163
12254SOL    HW240566   1.428   6.011   2.009 -0.5358 -0.4589  1.9069
12255SOL     OW40567   0.715   5.643   2.562  0.0804 -0.0564 -0.1528
12255SOL    HW140568   0.768   5.727   2.575  0.2987 -0.1222 -0.5881
12255SOL    HW240569   0.638   5.641   2.626  0.1372  0.4212 -0.0676
12256SOL     OW40570   5.847   1.608   2.837 -0.1854  0.0601 -0.0839
12256SOL    HW140571   5.775   1.595   2.770 -0.3153 -0.7075  0.2037
12256SOL    HW240572   5.854   1.705   2.860 -1.8707  0.0056  0.7079
12258SOL     OW40573   3.873   0.329   2.092 -0.5249  0.2570 -0.3586
12258SOL    HW140574   3.810   0.284   2.156 -2.0460  1.6349 -0.8494
12258SOL    HW240575   3.866   0.428   2.104  2.5069  0.4262  0.4642
12259SOL     OW40576   5.351   0.510   3.104  0.1593 -0.4698 -0.0432
12259SOL    HW140577   5.427   0.549   3.156 -1.6003  0.8893  1.5824
12259SOL    HW240578   5.282   0.475   3.167 -1.7020  0.5735 -1.4420
12260SOL     OW40579   0.704   4.918   0.248  0.0177 -0.3728 -0.0999
12260SOL    HW140580   0.785   4.891   0.299 -0.5110 -2.1618 -0.1609
12260SOL    HW240581   0.727   4.990   0.183  1.3663 -0.2898  0.4654
12263SOL     OW40582   2.746   9.993   0.394 -0.1521 -0.3208  0.2425
12263SOL    HW140583   2.731   9.899   0.422 -0.3570 -0.4757 -0.3741
12263SOL    HW240584   2.658  10.038   0.378 -0.0676  0.1104  0.9637
12265SOL     OW40585   9.251   2.765   0.456  0.3694 -0.3522  0.1634
12265SOL    HW140586   9.199   2.822   0.519  0.1077 -0.1294 -0.2604
12265SOL    HW240587   9.269   2.815   0.372 -0.4337 -1.1303 -0.4707
12266SOL     OW40588   1.412   4.539   1.569 -0.8211  0.1362 -0.5641
12266SOL    HW140589   1.318   4.572   1.578 -1.5010 -1.8424 -0.2473
12266SOL    HW240590   1.423   4.492   1.482 -0.2230  0.0320 -0.4377
12267SOL     OW40591   1.778   4.139   2.969 -0.5965  0.0046  0.0870
12267SOL    HW140592   1.875   4.125   2.993  0.1588 -0.2112 -2.9399
12267SOL    HW240593   1.733   4.190   3.042  1.4908 -0.9445  2.1228
12268SOL     OW40594   4.941   5.507   0.950 -0.2131 -0.1312  0.1067
12268SOL    HW140595   4.952   5.603   0.973  0.0754 -0.0985 -0.1517
12268SOL    HW240596   5.030   5.467   0.931 -0.4248 -0.1818 -0.8209
12269SOL     OW40597   9.059   5.708   2.527 -0.4110 -0.1327 -0.1928
12269SOL    HW140598   9.113   5.653   2.591 -0.4563  0.9171  0.7633
12269SOL    HW240599   9.093   5.694   2.434  0.5379 -0.6140  0.2227
12270SOL     OW40600   3.510   7.024   3.335 -0.3863 -0.3995  0.1443
12270SOL    HW140601   3.479   7.005   3.242  1.5215  0.9485 -0.8085
12270SOL    HW240602   3.562   7.110   3.335  0.7413 -1.0658  2.2128
12271SOL     OW40603   9.778   8.891   4.197  0.2828 -0.7588 -0.1261
12271SOL    HW140604   9.720   8.809   4.199  1.1439 -1.3714  2.5017
12271SOL    HW240605   9.725   8.970   4.225  0.0583 -0.8764 -0.2210
12272SOL     OW40606   5.995   1.182   3.426  0.0589  0.2045  0.4721
12272SOL    HW140607   5.929   1.218   3.492 -2.0570 -2.7853  0.0879
12272SOL    HW240608   6.036   1.098   3.462  0.5268 -0.2455 -1.0648
12273SOL     OW40609   6.741   1.074   3.605  0.0126  0.1345  0.5498
12273SOL    HW140610   6.751   0.986   3.653  0.9195  0.1993  0.4908
12273SOL    HW240611   6.741   1.058   3.506  1.5112  0.3084  0.5008
12274SOL     OW40612   8.110   8.763   2.340  0.3047 -0.0692 -0.1558
12274SOL    HW140613   8.163   8.733   2.261  1.4949 -1.0208  0.9787
12274SOL    HW240614   8.127   8.861   2.355  1.5121 -0.2900  0.0015
12275SOL     OW40615   2.804   4.426   3.974 -0.4588  0.5346  0.0224
12275SOL    HW140616   2.772   4.353   4.034 -0.3657 -0.1105 -0.7014
12275SOL    HW240617   2.904   4.424   3.969 -0.4926  0.2132 -0.6059
12277SOL     OW40618   4.204   0.722   1.845 -0.3368 -0.0173  0.1908
12277SOL    HW140619   4.221   0.670   1.761  0.9283  0.9005 -0.1566
12277SOL    HW240620   4.206   0.661   1.924 -0.0404 -0.6753 -0.3190
12278SOL     OW40621   9.754   0.473   0.377  0.3084  0.0515 -0.8102
12278SOL    HW140622   9.794   0.387   0.407 -2.6085 -0.9832  0.2391
12278SOL    HW240623   9.781   0.546   0.441 -0.4825 -0.8684  0.6014
12283SOL     OW40624   6.145   8.915   1.455 -0.2809  0.2082  0.3158
12283SOL    HW140625   6.119   8.971   1.533 -1.5374 -1.2716  0.9885
12283SOL    HW240626   6.064   8.867   1.420  0.5685 -0.3570 -0.8918
12284SOL     OW40627   3.366   2.698   1.468 -0.3115 -0.6558 -0.1168
12284SOL    HW140628   3.426   2.651   1.403 -0.8578 -0.0475 -1.0897
12284SOL    HW240629   3.404   2.788   1.488 -0.3667 -0.6726  0.0601
12285SOL     OW40630   2.585   0.544   2.594  0.2959 -0.0446  0.0521
12285SOL    HW140631   2.531   0.497   2.664 -0.5854  0.7472 -0.0854
12285SOL    HW240632   2.683   0.531   2.613  0.0631 -1.4947  0.2940
12286SOL     OW40633   5.007   0.397   1.443  0.2337 -0.0020  0.5529
12286SOL    HW140634   4.913   0.369   1.424  0.1804  1.0573 -0.8875
12286SOL    HW240635   5.068   0.357   1.374  0.9402 -1.2111  1.8630
12287SOL     OW40636   2.457   3.510   2.686  0.1247 -0.1834  0.1128
12287SOL    HW140637   2.443   3.461   2.773 -1.7641 -0.0474 -0.1049
12287SOL    HW240638   2.501   3.449   2.621 -2.2477 -1.6509 -0.1673
12288SOL     OW40639   3.844   2.337   0.162 -0.6101  0.1970  0.7199
12288SOL    HW140640   3.941   2.313   0.154 -0.9263 -1.0479  0.6305
12288SOL    HW240641   3.837   2.429   0.202  0.6844  1.8317 -2.5565
12290SOL     OW40642   9.854   0.072   0.802 -0.2454  0.2873  0.5299
12290SOL    HW140643   9.847   0.171   0.800  1.2625  0.4016  0.4242
12290SOL    HW240644   9.763   0.032   0.815 -1.2592  1.5923 -2.1465
12291SOL     OW40645   2.773   2.770   2.747  0.3401 -0.0960 -0.0531
12291SOL    HW140646   2.789   2.858   2.701 -4.7406  0.0619 -1.8884
12291SOL    HW240647   2.794   2.696   2.684  0.0832 -0.0588 -0.1839
12293SOL     OW40648   3.775   5.425   1.742 -0.5800  0.7708  0.2095
12293SOL    HW140649   3.869   5.392   1.738 -1.0615 -0.4122 -2.0305
12293SOL    HW240650   3.713   5.349   1.759 -1.4059  0.9832 -1.6873
12296SOL     OW40651   2.745   6.595   2.482  0.0863  0.1361 -0.5730
12296SOL    HW140652   2.804   6.616   2.559 -0.7644  0.1809  0.0750
12296SOL    HW240653   2.787   6.628   2.397  0.3960  1.2696  0.0186
12298SOL     OW40654   8.482   7.354   0.398  0.1170 -0.1066  0.2023
12298SOL    HW140655   8.467   7.447   0.364  1.4912  0.1930  0.3517
12298SOL    HW240656   8.578   7.329   0.381  0.3237 -0.6664  2.1469
12299SOL     OW40657   3.075   7.005   0.502 -0.0787 -0.1063 -0.1626
12299SOL    HW140658   3.129   7.015   0.418  0.3716 -0.0938  0.1270
12299SOL    HW240659   3.024   6.919   0.498  0.4994 -0.4586 -0.1368
12300SOL     OW40660   9.567   1.514   1.276  0.6113  0.7504 -0.1020
12300SOL    HW140661   9.470   1.538   1.278  0.7128  1.0947  0.8501
12300SOL    HW240662   9.608   1.548   1.191  0.2117  1.8448  0.1292
12304SOL     OW40663   9.539   2.765   2.545 -0.4729  0.2427  0.3020
12304SOL    HW140664   9.443   2.741   2.527 -0.7879  0.3363  1.8358
12304SOL    HW240665   9.597   2.687   2.521 -1.1000 -0.4665  1.0537
12305SOL     OW40666   2.762   9.208   0.396  0.2044  0.2166  0.1225
12305SOL    HW140667   2.712   9.121   0.400 -1.6102  1.1705 -0.9722
12305SOL    HW240668   2.828   9.205   0.321  1.3554 -0.7920  1.1361
12307SOL     OW40669   9.674   7.740   3.320  0.1832  0.2613 -0.3671
12307SOL    HW140670   9.713   7.658   3.277  1.0332  1.6094 -2.2329
12307SOL    HW240671   9.743   7.782   3.379 -0.3383 -0.4898  0.7960
12308SOL     OW40672   8.856   5.826   3.818 -0.3013 -0.5600 -0.8075
12308SOL    HW140673   8.939   5.837   3.763  0.5977 -2.5907  0.0797
12308SOL    HW240674   8.792   5.900   3.797  0.8783 -0.1101 -3.0200
12309SOL     OW40675   5.555   9.957   4.294 -0.4456  0.1778  0.2963
12309SOL    HW140676   5.573  10.017   4.216  1.1110 -0.1112  0.4075
12309SOL    HW240677   5.598   9.995   4.376  2.4760 -2.1102 -0.0664
12310SOL     OW40678   6.622   9.081   1.490  0.0846 -0.0174 -0.1408
12310SOL    HW140679   6.574   9.025   1.422 -0.2085 -1.3056  1.0956
12310SOL    HW240680   6.572   9.078   1.577  0.3993  1.6893  0.1168
12312SOL     OW40681   4.083   0.440   3.831 -0.2172 -0.2623  0.1617
12312SOL    HW140682   4.159   0.384   3.800 -0.9522 -0.6062 -1.0666
12312SOL    HW240683   4.057   0.413   3.924  1.8442  0.6009  1.0232
12314SOL     OW40684   2.351   2.541   3.575 -0.1373  0.2047  0.6524
12314SOL    HW140685   2.355   2.635   3.608  0.5871  0.1405  0.7530
12314SOL    HW240686   2.256   2.512   3.568 -0.3537  0.8705  0.8314
12315SOL     OW40687   7.904   7.226   3.244 -0.5853 -0.3134 -0.4864
12315SOL    HW140688   7.912   7.193   3.338 -1.6359 -0.4482 -0.4404
12315SOL    HW240689   7.937   7.156   3.181 -0.0509 -0.2930 -0.2330
12317SOL     OW40690   8.774   3.334   2.686  0.7590  0.2816  0.0250
12317SOL    HW140691   8.760   3.249   2.635  0.7304 -0.8216  1.8124
12317SOL    HW240692   8.843   3.319   2.757 -0.3399  1.3136  1.3381
12318SOL     OW40693   7.384   2.611   1.519 -0.2502 -0.2791 -0.4103
12318SOL    HW140694   7.337   2.605   1.608 -0.9586 -0.8914 -0.8131
12318SOL    HW240695   7.443   2.531   1.507  0.0874 -0.0385 -0.3578
12319SOL     OW40696   7.995   6.409   3.318 -0.3503 -0.0375 -0.0319
12319SOL    HW140697   7.976   6.453   3.231 -0.2192 -0.4182 -0.2516
12319SOL    HW240698   7.911   6.402   3.371 -0.5600 -0.4516 -0.4230
12320SOL     OW40699   9.687   3.711   3.670  0.8305  0.2379 -0.1745
12320SOL    HW140700   9.681   3.732   3.767  2.7657  0.7599 -0.1392
12320SOL    HW240701   9.629   3.632   3.649 -0.1804  0.5875  1.2406
12321SOL     OW40702   3.351   2.511   1.823 -0.1208 -0.0137  0.2894
12321SOL    HW140703   3.318   2.604   1.811  3.0497  0.7270 -3.7220
12321SOL    HW240704   3.370   2.495   1.920  0.1044  3.8089  0.9606
12322SOL     OW40705   8.010   4.079   1.121  0.0778 -0.2231 -0.1118
12322SOL    HW140706   7.953   4.049   1.197 -0.7017  0.7089 -0.3245
12322SOL    HW240707   7.956   4.135   1.058  1.3930  1.3699  0.1125
12323SOL     OW40708   1.824   6.773   0.772  0.3578  0.0986  0.4002
12323SOL    HW140709   1.780   6.846   0.719  1.8469 -1.0372 -2.5021
12323SOL    HW240710   1.817   6.687   0.722  2.2949 -0.9083  1.8026
12324SOL     OW40711   2.085   3.731   3.254  0.8577 -0.2963  0.6584
12324SOL    HW140712   2.179   3.702   3.272  2.0322  2.9485  0.1610
12324SOL    HW240713   2.049   3.779   3.333  0.9691  1.6513 -0.4333
12325SOL     OW40714   0.180   6.927   2.916  0.4051 -0.1811 -0.4916
12325SOL    HW140715   0.261   6.869   2.924  0.0758 -0.8216 -1.6379
12325SOL    HW240716   0.156   6.964   3.006  1.5961 -0.4877 -0.0437
12326SOL     OW40717   1.515   8.592   0.929 -0.4695 -0.2322 -0.2582
12326SOL    HW140718   1.567   8.525   0.983 -2.4816 -1.0482  0.6967
12326SOL    HW240719   1.532   8.577   0.832  1.0414 -0.5035  0.0236
12327SOL     OW40720   7.794   5.756   3.247  0.1524 -0.5236 -0.1014
12327SOL    HW140721   7.856   5.742   3.324  0.7562  0.1763 -0.4606
12327SOL    HW240722   7.817   5.841   3.200 -1.0763 -0.2564 -0.2437
12328SOL     OW40723   3.929   9.072   2.954 -0.8844  0.0568 -0.1104
12328SOL    HW140724   3.966   9.161   2.979 -0.5386  0.1971 -1.1177
12328SOL    HW240725   3.868   9.081   2.876 -1.1276 -0.5415  0.0037
12329SOL     OW40726   2.107   7.348   3.190  0.0444 -0.0029  0.5327
12329SOL    HW140727   2.058   7.294   3.258  0.9471 -0.8059  0.5546
12329SOL    HW240728   2.145   7.430   3.233  0.4310 -0.3993  0.9503
12330SOL     OW40729   1.467   7.230   1.203 -0.4669 -0.1109 -0.5909
12330SOL    HW140730   1.429   7.282   1.126 -1.3258 -1.0982 -0.8421
12330SOL    HW240731   1.409   7.151   1.221 -0.2021  0.0512  1.0107
12331SOL     OW40732   0.955   0.736   3.174 -0.0452  0.2531 -0.6147
12331SOL    HW140733   0.899   0.699   3.100 -1.0133 -0.2921  0.3655
12331SOL    HW240734   1.035   0.678   3.189 -0.3226 -0.1345 -0.6418
12332SOL     OW40735   3.891   4.202   0.242  0.2062 -0.1607 -0.4044
12332SOL    HW140736   3.825   4.260   0.194  0.9343 -0.2729 -1.5628
12332SOL    HW240737   3.925   4.249   0.323  0.2783  0.7518 -0.9565
12333SOL     OW40738   1.944   1.499   1.022 -0.1488  0.4490  0.1751
12333SOL    HW140739   1.941   1.563   1.099  1.7586 -1.0704  1.5708
12333SOL    HW240740   1.870   1.431   1.031 -1.8089  2.0451 -0.9977
12335SOL     OW40741   6.798   6.768   2.362  0.1758 -0.7889 -0.9704
12335SOL    HW140742   6.734   6.832   2.320  1.1172  1.5749  1.1096
12335SOL    HW240743   6.885   6.773   2.314  0.3955 -0.1462 -0.5091
12336SOL     OW40744   5.504   0.417   2.757  0.3983 -0.5830  0.2060
12336SOL    HW140745   5.542   0.361   2.830  1.3273 -0.9935 -0.5857
12336SOL    HW240746   5.405   0.412   2.759  0.4427 -1.2126  0.9502
12337SOL     OW40747   8.375   0.863   3.879 -0.1863  0.1394 -0.4922
12337SOL    HW140748   8.327   0.929   3.936 -2.2094  0.2080 -2.1798
12337SOL    HW240749   8.370   0.772   3.920 -1.5471  0.2035 -0.4985
12338SOL     OW40750   7.633   9.326   1.694  1.2016  0.0225  0.3195
12338SOL    HW140751   7.578   9.261   1.642  1.7960  0.1449 -0.4753
12338SOL    HW240752   7.575   9.401   1.727  0.4395 -1.1157  1.5868
12339SOL     OW40753   0.274   3.654   1.179  0.0819 -0.3856  0.1954
12339SOL    HW140754   0.360   3.617   1.214 -0.7037 -1.5600  0.9301
12339SOL    HW240755   0.198   3.622   1.236 -0.8079  0.9793 -0.1841
12340SOL     OW40756   0.077   7.988   2.330 -0.1316  0.0323 -0.4684
12340SOL    HW140757   0.011   7.942   2.271  0.7089 -2.6720  0.6117
12340SOL    HW240758   0.112   8.069   2.283 -1.7801 -0.2920 -2.3716
12341SOL     OW40759   5.195   2.192   2.556 -0.4068 -0.0491 -0.1932
12341SOL    HW140760   5.273   2.130   2.563  0.2237  0.7122 -0.4026
12341SOL    HW240761   5.192   2.232   2.465 -0.0747  1.1784  0.3208
12342SOL     OW40762   0.760   3.525   1.299 -0.2623  0.2309  0.5054
12342SOL    HW140763   0.772   3.481   1.211  0.1650  1.0177  0.1649
12342SOL    HW240764   0.752   3.624   1.287 -1.2059  0.2585  1.2576
12344SOL     OW40765   8.860   9.640   0.724  0.1591 -0.7756  0.1278
12344SOL    HW140766   8.884   9.734   0.703 -0.0286 -0.6940  0.2769
12344SOL    HW240767   8.929   9.578   0.687  0.2804 -0.5792  0.0293
12346SOL     OW40768   1.156   6.810   2.646  0.1052  0.2448  0.5712
12346SOL    HW140769   1.089   6.738   2.665 -0.0850  0.0354 -0.8372
12346SOL    HW240770   1.139   6.888   2.708 -0.8924 -0.1519  0.8078
12347SOL     OW40771   1.240   5.254   1.925 -0.1765 -0.3184  0.2215
12347SOL    HW140772   1.260   5.322   1.854 -1.8149  1.3016  1.2538
12347SOL    HW240773   1.143   5.231   1.922 -0.4815  0.5548  2.5867
12348SOL     OW40774   2.355   4.396   0.141 -0.3654 -0.5646 -0.1475
12348SOL    HW140775   2.403   4.389   0.228  0.4477 -0.5335 -0.5877
12348SOL    HW240776   2.333   4.304   0.109  0.2395 -0.6260 -0.3990
12349SOL     OW40777   1.293   4.793   3.829 -0.2042 -0.6941  0.4207
12349SOL    HW140778   1.295   4.744   3.742  1.0605 -0.9039  0.5587
12349SOL    HW240779   1.301   4.891   3.813 -1.2585 -0.6338  0.2321
12352SOL     OW40780   9.740   4.476   1.762 -0.1435 -0.0818  0.1809
12352SOL    HW140781   9.710   4.571   1.750 -1.8709 -0.5246  0.7966
12352SOL    HW240782   9.840   4.473   1.766 -0.1153  1.9433  2.0742
12353SOL     OW40783   9.918   0.149   0.302 -0.0355 -0.3828 -0.1557
12353SOL    HW140784  10.014   0.136   0.278 -0.4582 -1.7765 -1.1278
12353SOL    HW240785   9.912   0.203   0.386  1.5937 -0.2736 -0.0945
12354SOL     OW40786   4.879   0.527   0.213 -0.4259  0.6547 -0.1955
12354SOL    HW140787   4.898   0.603   0.276  0.9377  0.6073 -0.5300
12354SOL    HW240788   4.964   0.476   0.196 -0.9784  0.1101 -1.3476
12356SOL     OW40789   4.466   4.414   1.876  0.3386 -0.2053  0.5045
12356SOL    HW140790   4.434   4.364   1.956  0.3457  0.4659  0.9315
12356SOL    HW240791   4.564   4.432   1.884  0.0032  1.4105  1.1966
12357SOL     OW40792   4.091   1.227   4.292 -0.3007  0.4125 -0.6174
12357SOL    HW140793   4.122   1.297   4.356 -2.2030  1.7534 -1.1108
12357SOL    HW240794   4.012   1.262   4.241 -1.5670 -2.2551 -0.5476
12358SOL     OW40795   9.821   9.231   3.268  0.2164 -0.4221  0.0630
12358SOL    HW140796   9.890   9.303   3.256  0.6053 -0.8936 -0.5598
12358SOL    HW240797   9.734   9.262   3.230  0.2176 -0.0227  0.3873
12359SOL     OW40798   1.482   9.282   1.844 -0.0829  0.5487 -0.0136
12359SOL    HW140799   1.462   9.349   1.773  1.5569 -0.5653 -1.5732
12359SOL    HW240800   1.553   9.316   1.905  0.9921  0.1097 -1.0098
12360SOL     OW40801   1.434   3.403   1.314 -0.6940 -0.1539 -0.0516
12360SOL    HW140802   1.464   3.362   1.228 -0.0224  0.0264  0.0925
12360SOL    HW240803   1.511   3.448   1.359 -1.0261 -0.2738  0.6633
12361SOL     OW40804   8.992   1.576   1.887 -0.1080 -0.2716 -0.4818
12361SOL    HW140805   9.037   1.504   1.940  1.3683  0.7228 -0.3817
12361SOL    HW240806   9.059   1.624   1.831 -0.6845  2.5201  1.1296
12362SOL     OW40807   4.480   5.473   1.299 -0.8444 -0.2975  0.1830
12362SOL    HW140808   4.511   5.567   1.312 -1.4184 -0.1072  0.1590
12362SOL    HW240809   4.442   5.462   1.207 -3.2189  0.1313  1.0870
12363SOL     OW40810   2.719   1.515   2.352 -0.1549 -0.3473  0.0958
12363SOL    HW140811   2.640   1.499   2.292  0.3925  1.5630 -1.1880
12363SOL    HW240812   2.797   1.461   2.320  0.4162  1.3907 -1.5529
12365SOL     OW40813   8.778   1.689   4.047  0.2718 -0.9786 -0.2261
12365SOL    HW140814   8.740   1.726   3.962  1.0169  0.9022  0.2422
12365SOL    HW240815   8.799   1.592   4.034 -1.8140 -1.3021 -1.4466
12367SOL     OW40816   7.786   6.890   2.899  0.0284 -0.3175  0.6316
12367SOL    HW140817   7.719   6.836   2.848 -0.1480  0.1992  0.3100
12367SOL    HW240818   7.796   6.852   2.991 -2.6738  1.1554  1.5909
12368SOL     OW40819   8.756   2.737   3.133  0.3055 -0.0907  0.0428
12368SOL    HW140820   8.719   2.748   3.224 -0.5243  0.2749 -0.3377
12368SOL    HW240821   8.707   2.796   3.069  1.1140 -0.0754 -0.5745
12369SOL     OW40822   1.518   8.022   2.013 -0.3480 -0.4124  0.5279
12369SOL    HW140823   1.499   7.924   2.008 -0.8634 -0.2379 -1.2571
12369SOL    HW240824   1.441   8.073   1.976  0.3918  0.6220  0.3870
12370SOL     OW40825   1.496   8.680   0.066  0.2761  0.1542  0.2518
12370SOL    HW140826   1.463   8.760   0.016  2.1285  1.6518  1.3999
12370SOL    HW240827   1.558   8.627   0.007 -0.9315 -0.4606 -0.4964
12371SOL     OW40828   0.433   1.517   3.268  0.4899 -0.3588 -0.2111
12371SOL    HW140829   0.344   1.474   3.252  0.4609 -0.3630 -0.0427
12371SOL    HW240830   0.476   1.539   3.180  0.1652 -0.0392 -0.2903
12372SOL     OW40831   2.351   1.506   4.187  0.4305  0.4189 -0.1278
12372SOL    HW140832   2.316   1.570   4.119 -0.4722 -0.4281 -0.4756
12372SOL    HW240833   2.294   1.511   4.269 -0.3784 -0.7908 -0.6038
12373SOL     OW40834   3.597   7.073   1.100 -0.0022 -0.3025  0.2404
12373SOL    HW140835   3.614   7.167   1.128 -0.3615 -0.1422 -0.0693
12373SOL    HW240836   3.562   7.072   1.006 -0.5791 -0.6969  0.4571
12374SOL     OW40837   7.488   9.271   1.292  0.1499  0.3643  0.3206
12374SOL    HW140838   7.574   9.240   1.332 -0.3104  0.8905  1.7471
12374SOL    HW240839   7.418   9.201   1.303 -0.8828  1.8189  3.5192
12375SOL     OW40840   9.387   9.467   4.175  0.0013 -0.1786 -0.1051
12375SOL    HW140841   9.341   9.529   4.112 -1.0801 -1.6825 -0.8479
12375SOL    HW240842   9.463   9.514   4.219 -1.3778  1.9303  0.0824
12376SOL     OW40843   9.527   9.012   0.101 -0.0829 -0.6929  0.5060
12376SOL    HW140844   9.459   9.006   0.174  0.6504 -0.9368  1.1738
12376SOL    HW240845   9.488   9.060   0.022 -0.7606 -0.1195  1.1904
12378SOL     OW40846   7.157   0.337   2.883 -0.4225 -0.3917  0.2931
12378SOL    HW140847   7.220   0.260   2.871 -1.2611 -0.8802 -1.1293
12378SOL    HW240848   7.106   0.352   2.798  0.4765  2.4135  0.1783
12379SOL     OW40849   8.649   2.816   2.239 -0.5963  0.0714  0.1717
12379SOL    HW140850   8.601   2.729   2.236 -2.2498  0.9427  0.3669
12379SOL    HW240851   8.649   2.857   2.147  0.4919 -0.2947  0.0051
12380SOL     OW40852   9.963   4.761   2.627  0.0573 -0.0105 -0.7872
12380SOL    HW140853   9.994   4.723   2.540 -0.7939 -2.2012 -0.1759
12380SOL    HW240854   9.870   4.797   2.617 -0.3282 -0.9390 -0.6261
12381SOL     OW40855   1.061   8.201   3.976  0.5304  0.3737 -0.2116
12381SOL    HW140856   1.071   8.143   4.057  0.2788 -0.1825 -0.5728
12381SOL    HW240857   1.065   8.297   4.003 -0.3515  0.2057  0.5719
12382SOL     OW40858   3.644   3.246   1.387 -0.0456  0.4554 -0.1721
12382SOL    HW140859   3.695   3.163   1.363 -2.9384 -2.0734  2.1366
12382SOL    HW240860   3.592   3.277   1.308  1.4918  0.4275 -1.2161
12383SOL     OW40861   8.988   8.907   2.808  0.1001  0.1231 -0.7126
12383SOL    HW140862   9.021   8.945   2.894  1.5280 -0.0325 -1.1856
12383SOL    HW240863   8.896   8.870   2.821  1.0009 -1.5259  1.2017
12384SOL     OW40864   9.803   6.644   1.205  0.2761  0.3913  0.0699
12384SOL    HW140865   9.807   6.648   1.105 -1.5046 -0.6136 -0.0620
12384SOL    HW240866   9.890   6.609   1.241  0.8678  0.6158 -1.1278
12385SOL     OW40867   2.319   4.658   2.238 -0.1740 -0.8777  0.2036
12385SOL    HW140868   2.247   4.619   2.296 -0.5642 -1.8421 -0.9165
12385SOL    HW240869   2.395   4.593   2.232  0.5405 -0.1218  0.8779
12386SOL     OW40870   4.856   9.982   1.060  0.2244 -0.0215  0.3905
12386SOL    HW140871   4.921   9.932   1.003  2.2160  1.5382  1.1999
12386SOL    HW240872   4.858  10.079   1.035 -1.5590  0.0953  0.6667
12387SOL     OW40873   4.257   1.071   4.440 -0.2324  0.4677  0.4713
12387SOL    HW140874   4.190   1.123   4.386  0.3962 -0.0621 -0.8561
12387SOL    HW240875   4.347   1.076   4.394  0.1785 -0.4872  1.1600
12388SOL     OW40876   8.340   4.335   3.921 -0.2837 -0.0135 -0.7384
12388SOL    HW140877   8.429   4.381   3.931 -1.1039  1.4118  0.2619
12388SOL    HW240878   8.351   4.252   3.866  1.6015  0.3305 -0.9158
12390SOL     OW40879   9.818   9.738   3.388  0.3352 -0.3365 -0.1074
12390SOL    HW140880   9.745   9.793   3.347  0.2018  1.3947  2.3092
12390SOL    HW240881   9.782   9.650   3.418  0.1245 -1.0401 -2.3246
12391SOL     OW40882   2.875   5.041   1.819  0.2971  0.0380 -0.5150
12391SOL    HW140883   2.789   4.990   1.824  0.4031 -0.4363 -2.7531
12391SOL    HW240884   2.950   4.977   1.797  0.5477  1.0123 -2.6515
12392SOL     OW40885   4.335   0.470   0.061  0.2571  0.4090 -0.2696
12392SOL    HW140886   4.255   0.445   0.006 -1.2071  4.4874 -0.1346
12392SOL    HW240887   4.416   0.476   0.002 -0.2539 -0.1785 -1.0395
12393SOL     OW40888   7.305   1.065   1.243 -0.5213 -0.3423  0.0440
12393SOL    HW140889   7.312   1.164   1.257 -0.6897 -0.1457 -1.2630
12393SOL    HW240890   7.260   1.024   1.322 -1.9266  0.8320 -0.1201
12394SOL     OW40891   1.545   9.005   2.959 -0.3661 -0.1028 -0.4896
12394SOL    HW140892   1.530   9.102   2.980 -1.1330 -0.3465  0.1035
12394SOL    HW240893   1.514   8.949   3.035  1.4842 -0.7558 -0.2004
12395SOL     OW40894   3.488   4.341   1.727  0.3474 -0.0617 -0.0681
12395SOL    HW140895   3.572   4.341   1.781  0.5712 -0.2107 -0.4161
12395SOL    HW240896   3.412   4.375   1.783  0.4420 -0.8566  0.5563
12396SOL     OW40897   9.267   6.392   4.384 -0.2843  0.4712 -0.0174
12396SOL    HW140898   9.167   6.384   4.378 -0.2840  0.0778  0.4011
12396SOL    HW240899   9.291   6.456   4.456 -0.2321 -0.0327  0.4214
12397SOL     OW40900   5.709   8.655   3.763  0.1365 -0.9256  0.3398
12397SOL    HW140901   5.685   8.569   3.809 -0.4126  0.6165  3.0441
12397SOL    HW240902   5.628   8.690   3.714 -0.2105 -0.9409  0.8968
12398SOL     OW40903   9.577   4.118   3.974 -0.1308 -0.2406  0.8740
12398SOL    HW140904   9.563   4.053   4.049 -0.7820  0.3650  1.2841
12398SOL    HW240905   9.636   4.192   4.005 -0.3451 -0.0255  0.7724
12400SOL     OW40906   9.929   6.293   0.738 -0.2426 -0.0991  0.2030
12400SOL    HW140907   9.833   6.311   0.717 -0.7591 -0.9175  1.7963
12400SOL    HW240908   9.983   6.294   0.653 -1.4155  1.6906 -0.5613
12401SOL     OW40909   0.966   8.350   0.778  0.2324  0.2392  0.3105
12401SOL    HW140910   0.964   8.442   0.738 -0.9785  0.0388 -0.0902
12401SOL    HW240911   0.877   8.306   0.767  1.3430 -1.6997 -1.1697
12402SOL     OW40912   0.630   2.779   0.668  0.3150 -0.6575  0.4146
12402SOL    HW140913   0.660   2.707   0.730  0.2248 -1.4168 -0.3960
12402SOL    HW240914   0.704   2.844   0.653  0.1350 -0.1323  1.7861
12403SOL     OW40915   2.969   3.159   0.089  0.5130 -0.0932  0.4407
12403SOL    HW140916   3.056   3.112   0.103 -0.2413 -1.1423  1.7040
12403SOL    HW240917   2.916   3.111   0.018  0.4793 -0.1322  0.4919
12405SOL     OW40918   9.657   1.918   0.231  0.1019 -0.3781 -0.6888
12405SOL    HW140919   9.621   1.920   0.138 -0.9418 -0.6044 -0.3038
12405SOL    HW240920   9.757   1.910   0.229  0.0748 -0.4561 -1.7784
12406SOL     OW40921   5.375   0.273   1.957 -0.2113 -0.3304  0.5116
12406SOL    HW140922   5.430   0.288   2.038 -0.7200 -0.1600  0.8271
12406SOL    HW240923   5.287   0.233   1.983 -0.6590  0.3879  0.1191
12407SOL     OW40924   4.611   3.964   0.355  0.6595  0.3064 -0.1108
12407SOL    HW140925   4.620   3.909   0.438  1.0052 -1.7145 -1.4546
12407SOL    HW240926   4.528   4.020   0.361  0.4196 -0.1873  1.3807
12408SOL     OW40927   4.230   0.377   3.390  0.0025 -0.0843 -0.1540
12408SOL    HW140928   4.284   0.459   3.371 -1.8415  1.0527 -0.6090
12408SOL    HW240929   4.152   0.401   3.448 -2.0586 -0.9757 -2.4599
12409SOL     OW40930   9.059   5.578   3.850  0.3742  0.2922  0.4153
12409SOL    HW140931   8.964   5.607   3.836 -0.5548 -2.9420 -0.3432
12409SOL    HW240932   9.062   5.507   3.920  2.3591  0.8462  0.9185
12410SOL     OW40933   5.756   7.487   2.701  0.3578  0.3160  0.8275
12410SOL    HW140934   5.736   7.390   2.687 -1.6124  0.7271  0.6730
12410SOL    HW240935   5.837   7.512   2.647  0.2988 -1.0057  0.0881
12411SOL     OW40936   7.105   9.252   1.406 -0.2498  0.1594  0.1450
12411SOL    HW140937   7.039   9.197   1.455 -0.2315 -0.8527 -0.9420
12411SOL    HW240938   7.127   9.334   1.459 -3.0215  0.9628  0.1198
12412SOL     OW40939   6.729   0.968   2.344  0.6155  0.0983 -0.5971
12412SOL    HW140940   6.691   1.005   2.259  0.4139  0.3197 -0.4126
12412SOL    HW240941   6.806   0.908   2.322  1.7409  1.5746 -0.8368
12413SOL     OW40942   7.617   1.798   3.453  0.0143 -0.5589 -0.0189
12413SOL    HW140943   7.598   1.722   3.392  0.2738 -1.6067  1.1788
12413SOL    HW240944   7.663   1.764   3.535 -0.2470  0.8268  0.7209
12416SOL     OW40945   8.327   2.300   2.621 -0.6925 -0.1034  0.1801
12416SOL    HW140946   8.233   2.272   2.641 -0.6680  0.3633  0.9249
12416SOL    HW240947   8.383   2.288   2.702 -0.1946  0.0169 -0.1483
12417SOL     OW40948   8.281   5.873   1.006  0.4104 -0.6133  0.4417
12417SOL    HW140949   8.272   5.961   1.052 -0.7222 -1.0429  1.0549
12417SOL    HW240950   8.335   5.884   0.922  0.8626  0.5228  0.8719
12418SOL     OW40951   9.799   7.486   2.207  0.0495 -0.2528  0.3897
12418SOL    HW140952   9.860   7.493   2.285  1.2907  2.3527 -0.7200
12418SOL    HW240953   9.851   7.463   2.125 -0.9290 -1.0754 -0.0119
12419SOL     OW40954   0.654   1.813   2.211 -0.0108 -0.3951  0.2307
12419SOL    HW140955   0.692   1.794   2.120 -0.6757 -0.5322 -0.0214
12419SOL    HW240956   0.609   1.902   2.211 -0.7456 -0.7652  0.1932
12420SOL     OW40957   4.213   5.536   1.171  0.5529  0.1988 -0.6083
12420SOL    HW140958   4.156   5.617   1.182 -1.8540 -1.6821  1.3373
12420SOL    HW240959   4.219   5.487   1.258  1.9804 -1.7054 -1.7348
12421SOL     OW40960   6.130   1.486   2.581 -0.3364 -0.2721  0.6609
12421SOL    HW140961   6.045   1.527   2.614  0.2260  0.8748  0.6867
12421SOL    HW240962   6.208   1.527   2.628  0.3921  0.4381 -1.1111
12422SOL     OW40963   0.593   5.832   3.495 -0.2532  0.5113  0.5406
12422SOL    HW140964   0.673   5.893   3.490 -1.1802  1.9385  2.6056
12422SOL    HW240965   0.574   5.796   3.404  2.8764 -0.0199  0.0346
12423SOL     OW40966   4.553   8.613   0.237  0.0666 -0.5018 -0.3420
12423SOL    HW140967   4.485   8.687   0.239 -0.6230 -1.1231 -0.3729
12423SOL    HW240968   4.625   8.636   0.172 -0.0645  0.2124 -0.2441
12424SOL     OW40969   8.860   4.344   1.055  0.1483 -0.0790  0.0481
12424SOL    HW140970   8.957   4.371   1.056  0.8177 -2.3173 -0.2530
12424SOL    HW240971   8.819   4.365   1.144  1.0520  0.3832  0.3735
12426SOL     OW40972   9.362   9.752   3.219  0.2297  0.1160  0.0161
12426SOL    HW140973   9.311   9.697   3.152  0.5949 -0.6044  0.3277
12426SOL    HW240974   9.371   9.701   3.304  1.7195  0.1228 -0.1319
12427SOL     OW40975   9.947   0.420   3.355 -0.2246 -0.1675 -0.4975
12427SOL    HW140976   9.963   0.455   3.448  1.6083 -1.0882 -0.4446
12427SOL    HW240977   9.986   0.482   3.288  0.5093 -0.6722 -0.5406
12428SOL     OW40978   5.152   1.263   2.266  0.4383 -0.4048 -0.1088
12428SOL    HW140979   5.130   1.192   2.199  2.2418 -0.6437 -0.4756
12428SOL    HW240980   5.091   1.341   2.253 -0.5441 -1.2572 -0.7127
12430SOL     OW40981   5.319   9.655   3.917 -0.3024 -0.1207 -0.0938
12430SOL    HW140982   5.370   9.697   3.841  0.0311 -0.4397 -0.0472
12430SOL    HW240983   5.363   9.680   4.003 -2.4616  2.7997  0.2257
12431SOL     OW40984   4.395   2.666   2.719  0.1863  0.4267 -0.3242
12431SOL    HW140985   4.354   2.588   2.673  0.5561 -0.5190  0.9388
12431SOL    HW240986   4.336   2.695   2.795 -0.2840  1.8057 -1.1863
12432SOL     OW40987   6.138   0.936   3.490 -0.2679 -0.0908 -0.0641
12432SOL    HW140988   6.175   0.902   3.577  0.3432  0.9412  0.0968
12432SOL    HW240989   6.194   0.902   3.415 -0.8502 -1.0594 -0.0612
12433SOL     OW40990   5.313   1.271   3.989  0.1371 -0.1327 -0.1364
12433SOL    HW140991   5.213   1.269   3.993  0.1531  0.4687  0.6748
12433SOL    HW240992   5.351   1.218   4.064  0.4309  0.1637 -0.0728
12434SOL     OW40993   2.920   9.998   2.679 -0.1022 -0.1563 -0.0268
12434SOL    HW140994   2.984   9.939   2.730  0.3446 -0.9131 -1.4413
12434SOL    HW240995   2.958  10.018   2.589 -0.7306  1.4783  0.0662
12435SOL     OW40996   3.463   9.658   0.607 -0.4703  0.2186 -0.2091
12435SOL    HW140997   3.451   9.596   0.685  0.4128 -0.2722 -0.4529
12435SOL    HW240998   3.536   9.623   0.548 -0.2354  1.2919 -0.5620
12436SOL     OW40999   3.651   2.674   1.091  0.7099  0.5039  0.1006
12436SOL    HW141000   3.595   2.757   1.086  0.7270  0.5483  0.6214
12436SOL    HW241001   3.645   2.625   1.004 -0.5119  0.2637  0.3000
12437SOL     OW41002   2.827   7.984   0.844 -0.5179 -0.4423  0.3640
12437SOL    HW141003   2.843   7.957   0.749 -2.8063 -0.0408 -0.1527
12437SOL    HW241004   2.826   8.084   0.850  1.0645 -0.4529  1.0820
12438SOL     OW41005   8.581   9.349   0.624  0.0582 -0.3993  0.1501
12438SOL    HW141006   8.508   9.400   0.670 -0.4728 -1.3842  0.4140
12438SOL    HW241007   8.639   9.304   0.692  0.8062  0.2187 -0.0667
12439SOL     OW41008   0.355   4.768   0.320  0.0043 -0.2408  0.4625
12439SOL    HW141009   0.416   4.694   0.348 -0.9747 -0.8820  0.9290
12439SOL    HW241010   0.262   4.733   0.310 -0.2976  0.7264 -0.2434
12440SOL     OW41011   1.731   9.991   1.223  0.0847  0.3513 -0.0992
12440SOL    HW141012   1.634   9.991   1.248 -0.4835  0.5434 -2.2091
12440SOL    HW241013   1.741  10.015   1.126  2.2778  0.8144  0.2076
12441SOL     OW41014   2.536   7.643   3.812  0.2011  0.6735 -0.1708
12441SOL    HW141015   2.520   7.659   3.715 -2.1377 -0.6061 -0.0459
12441SOL    HW241016   2.547   7.545   3.828 -0.5796  0.7637  0.9963
12442SOL     OW41017   9.403   6.062   3.808  0.0983  0.5082  0.2904
12442SOL    HW141018   9.441   6.046   3.717 -0.5356 -1.5341  0.3704
12442SOL    HW241019   9.314   6.107   3.799 -0.3984 -0.5446 -0.1507
12443SOL     OW41020   9.126   7.170   2.046 -0.0848 -0.2359 -0.0458
12443SOL    HW141021   9.069   7.170   1.964  0.0003  1.1141 -0.1186
12443SOL    HW241022   9.213   7.216   2.026  0.6942 -1.5073  0.3037
12444SOL     OW41023   2.814   6.281   2.662 -0.6560 -0.0014  0.4034
12444SOL    HW141024   2.815   6.357   2.727 -2.6335  1.5949 -1.3574
12444SOL    HW241025   2.740   6.218   2.686 -1.6260  0.7823 -0.4734
12445SOL     OW41026   1.179   0.825   0.737  0.0295  0.3714 -0.8951
12445SOL    HW141027   1.114   0.762   0.780  0.4498 -0.7627 -1.8923
12445SOL    HW241028   1.148   0.919   0.751 -1.7660 -0.1455 -1.2496
12446SOL     OW41029   8.577   8.278   3.033  0.2940  0.3926  0.4288
12446SOL    HW141030   8.634   8.204   3.069 -0.4998 -1.2072 -1.5634
12446SOL    HW241031   8.635   8.357   3.012  1.8994 -1.3584 -1.9855
12447SOL     OW41032   3.359   7.638   0.101 -0.0006 -0.0618  0.4531
12447SOL    HW141033   3.269   7.621   0.143 -0.4608  1.3695  0.0775
12447SOL    HW241034   3.420   7.562   0.123 -1.8250 -1.9605 -0.7591
12450SOL     OW41035   1.069   6.273   1.301 -0.5040 -0.0345  0.0378
12450SOL    HW141036   1.066   6.210   1.379 -0.9399 -0.2257 -0.1294
12450SOL    HW241037   1.138   6.343   1.317 -3.5417  2.5582  2.6722
12451SOL     OW41038   2.215   0.562   3.393 -0.2297 -0.0348  0.7818
12451SOL    HW141039   2.209   0.662   3.403  0.5301 -0.0476  1.4453
12451SOL    HW241040   2.303   0.531   3.428 -0.6558 -0.9958  1.0059
12452SOL     OW41041   1.459   3.166   2.743 -0.3579  0.0523  0.0479
12452SOL    HW141042   1.372   3.211   2.720  0.9120  2.2896 -0.5695
12452SOL    HW241043   1.477   3.093   2.677 -1.7326 -0.4008  0.1494
12453SOL     OW41044   7.077   8.073   2.444  0.6771  0.0978  0.1668
12453SOL    HW141045   7.037   8.088   2.353  0.7899  0.9586  0.2625
12453SOL    HW241046   7.019   8.008   2.494  1.8844 -2.2401 -1.3693
12455SOL     OW41047   2.552   6.703   0.854  0.6409  0.1030 -0.1361
12455SOL    HW141048   2.550   6.787   0.908 -0.3993  0.5823 -0.9198
12455SOL    HW241049   2.597   6.631   0.907  2.5153  1.4299  0.1186
12456SOL     OW41050   9.325   2.868   1.805  0.3839 -0.0762  0.3344
12456SOL    HW141051   9.250   2.933   1.817 -0.6843 -1.3357  0.5796
12456SOL    HW241052   9.386   2.900   1.733 -1.1421  0.2801 -0.8205
12459SOL     OW41053   3.917   2.231   2.382  0.5599 -0.3186 -0.2745
12459SOL    HW141054   3.842   2.169   2.361  0.4572 -0.3207  0.0889
12459SOL    HW241055   4.003   2.179   2.388  0.3441 -0.5690  0.8653
12460SOL     OW41056   7.749   4.587   4.067 -0.1193 -0.1485 -0.2372
12460SOL    HW141057   7.791   4.513   4.120 -0.6580 -0.1404  0.2056
12460SOL    HW241058   7.792   4.591   3.977 -0.2654 -1.1779 -0.3637
12461SOL     OW41059   9.929   8.332   2.417 -0.7219 -0.0615 -0.2667
12461SOL    HW141060   9.909   8.292   2.506 -1.4561  0.3892 -0.2256
12461SOL    HW241061  10.022   8.306   2.389  0.6513  2.1910  1.9791
12463SOL     OW41062   9.344   7.547   0.894  0.5837  0.3150  0.1759
12463SOL    HW141063   9.400   7.466   0.877  0.7361  0.6702 -1.0255
12463SOL    HW241064   9.403   7.624   0.918  0.6607  0.7813 -1.4417
12464SOL     OW41065   2.860   7.192   4.020 -0.0035 -0.5754 -0.0597
12464SOL    HW141066   2.840   7.114   4.080  0.1620 -1.6474 -1.3666
12464SOL    HW241067   2.795   7.194   3.945  2.1298 -1.5732 -2.0055
12466SOL     OW41068   9.481   2.326   4.147 -0.0763  0.5608  0.3074
12466SOL    HW141069   9.573   2.301   4.174 -0.0081 -0.9397 -1.2000
12466SOL    HW241070   9.484   2.411   4.094  0.5922 -0.0651 -0.6809
12467SOL     OW41071   0.103   4.584   0.511  0.4530  1.0473  0.3880
12467SOL    HW141072   0.170   4.624   0.573  1.5215  0.1482 -0.1808
12467SOL    HW241073   0.084   4.648   0.437  0.4160  1.4401  0.7340
12471SOL     OW41074   0.761   5.104   1.000 -0.0206  0.3796  0.5015
12471SOL    HW141075   0.788   5.010   1.021 -1.3691 -0.0061  0.5303
12471SOL    HW241076   0.843   5.159   0.983  0.7637 -0.8549  0.2295
12472SOL     OW41077   2.165   2.802   1.804  0.1807 -0.0962  0.2433
12472SOL    HW141078   2.184   2.824   1.708 -1.8107  2.1628  0.3224
12472SOL    HW241079   2.249   2.769   1.847  1.6108  0.7774 -1.7527
12474SOL     OW41080   0.232   6.233   1.800 -0.1333  0.1527  0.1805
12474SOL    HW141081   0.258   6.322   1.764 -0.8464  0.3291  0.0994
12474SOL    HW241082   0.302   6.201   1.864  0.2232  0.6727  0.0538
12475SOL     OW41083   2.074   8.946   0.052  0.0431 -0.4412 -0.3848
12475SOL    HW141084   2.151   8.886   0.033  0.5171 -0.9627  3.0284
12475SOL    HW241085   1.992   8.891   0.069 -0.2607 -0.0016 -0.4018
12476SOL     OW41086   3.551   9.183   3.247  0.0401  0.0488 -0.4356
12476SOL    HW141087   3.570   9.281   3.243  0.5352 -0.1148 -2.4533
12476SOL    HW241088   3.553   9.145   3.155  1.4362 -2.1655  0.4857
12478SOL     OW41089   7.046   6.559   3.499  0.5708 -0.1377  0.3523
12478SOL    HW141090   7.076   6.651   3.524 -0.0829  0.0488  0.4639
12478SOL    HW241091   6.950   6.548   3.524  0.4759 -0.6429 -0.2290
12481SOL     OW41092   1.237   1.383   2.770 -0.3136 -0.0824 -0.2263
12481SOL    HW141093   1.307   1.318   2.741 -0.2062  0.0116 -0.1774
12481SOL    HW241094   1.146   1.346   2.749 -0.2219  0.2654 -1.2708
12482SOL     OW41095   2.878   0.117   3.896 -0.5664 -0.4307 -0.2052
12482SOL    HW141096   2.869   0.110   3.995 -0.6798  0.8824 -0.1043
12482SOL    HW241097   2.954   0.178   3.874 -0.4624 -0.8199 -0.9203
12483SOL     OW41098   8.014   3.255   0.227 -0.0258  0.3714 -0.0116
12483SOL    HW141099   8.079   3.231   0.155 -0.2194 -1.0097  0.2573
12483SOL    HW241100   8.044   3.339   0.273  1.0549  0.2692 -0.5163
12484SOL     OW41101   7.926   0.162   2.175  0.3954  0.0475 -0.0814
12484SOL    HW141102   7.865   0.103   2.229  0.0578  0.1571 -0.3365
12484SOL    HW241103   7.943   0.247   2.225 -1.7773  1.1492 -1.1132
12485SOL     OW41104   1.482   7.798   3.248  0.4374 -0.5826  0.5339
12485SOL    HW141105   1.416   7.818   3.176 -0.2047  0.4950  1.4179
12485SOL    HW241106   1.448   7.724   3.306  0.2072 -0.3363  0.7149
12486SOL     OW41107   0.262   1.004   1.503  0.0901 -0.4163  0.6671
12486SOL    HW141108   0.189   0.984   1.439  0.5504  1.3091 -0.4237
12486SOL    HW241109   0.231   1.074   1.568  0.8318  0.4829  0.0617
12487SOL     OW41110   8.113   1.096   1.874  0.3263  0.0492 -0.2154
12487SOL    HW141111   8.022   1.079   1.837  0.6789  0.0799 -1.1101
12487SOL    HW241112   8.174   1.127   1.801  0.6947  1.4074  0.6433
12488SOL     OW41113   8.066   9.261   2.478 -0.8202 -0.1039  0.1913
12488SOL    HW141114   8.032   9.344   2.434 -0.3503 -0.3922 -0.7322
12488SOL    HW241115   8.166   9.259   2.473 -0.7722 -0.2671  1.0537
12489SOL     OW41116   2.353   8.927   1.572  0.4271  0.1559 -0.1690
12489SOL    HW141117   2.379   8.996   1.640 -1.0201  0.4866  0.0627
12489SOL    HW241118   2.291   8.968   1.505 -2.5386 -1.5261  1.4421
12490SOL     OW41119   2.816   0.335   2.270  0.3241 -0.0647  0.8677
12490SOL    HW141120   2.837   0.363   2.177  0.7478  0.1285  1.0223
12490SOL    HW241121   2.723   0.296   2.273 -0.2437  1.2494  0.6488
12492SOL     OW41122   9.222   6.722   3.685  0.1482 -0.0647 -0.4229
12492SOL    HW141123   9.265   6.675   3.762 -1.6033  1.1140  1.3088
12492SOL    HW241124   9.249   6.818   3.685 -0.4721  0.1140 -0.8171
12493SOL     OW41125   7.027   7.888   2.896  0.1276 -0.5572 -0.6005
12493SOL    HW141126   7.045   7.914   2.991  0.1455  2.5161 -1.4023
12493SOL    HW241127   7.096   7.929   2.836 -0.3947 -1.7474 -2.0550
12494SOL     OW41128   8.943   6.129   1.704  0.0662 -0.1579 -0.5051
12494SOL    HW141129   8.906   6.043   1.669  0.5751 -0.7735  0.4675
12494SOL    HW241130   8.920   6.203   1.640 -1.0486 -0.8776 -0.9515
12495SOL     OW41131   1.733   5.922   4.154  0.4973 -0.1076  0.3083
12495SOL    HW141132   1.735   5.823   4.139 -0.2501 -0.3294  1.5766
12495SOL    HW241133   1.708   5.968   4.068 -1.4040 -1.1771  0.2492
12496SOL     OW41134   3.137   4.594   0.309  0.5577  0.3810  0.0325
12496SOL    HW141135   3.209   4.630   0.250  1.5946  0.5258  1.3597
12496SOL    HW241136   3.051   4.640   0.288  1.4045  2.0841  0.2254
12497SOL     OW41137   6.583   1.743   2.463  0.6915 -0.0823  0.5125
12497SOL    HW141138   6.586   1.808   2.387 -1.3262  0.5000  0.9060
12497SOL    HW241139   6.523   1.667   2.439 -0.3472  0.3491  1.6964
12498SOL     OW41140   4.684   6.704   3.332 -0.1495  0.1572 -0.0864
12498SOL    HW141141   4.777   6.673   3.355 -0.5578 -0.6073  0.5997
12498SOL    HW241142   4.631   6.714   3.416 -0.7020  0.5466 -0.4786
12499SOL     OW41143   5.926   7.585   1.505  0.3807  0.0791 -0.4639
12499SOL    HW141144   6.018   7.556   1.478  0.0625  0.3133 -1.8348
12499SOL    HW241145   5.922   7.685   1.509  0.7151  0.0201  1.5124
12500SOL     OW41146   0.446   1.236   0.073 -0.7286 -0.3550 -0.0359
12500SOL    HW141147   0.496   1.161   0.028 -0.9174 -1.1777  1.1124
12500SOL    HW241148   0.498   1.269   0.151 -2.2240 -1.6173  1.5269
12501SOL     OW41149   7.898   7.752   3.036 -0.0573 -0.4696 -0.1670
12501SOL    HW141150   7.930   7.847   3.048 -1.7098  0.1407 -0.4430
12501SOL    HW241151   7.814   7.739   3.089 -0.5514 -1.4020 -1.1828
12502SOL     OW41152   5.916   9.583   1.240 -0.0613 -0.5170  0.1030
12502SOL    HW141153   5.974   9.640   1.183  0.4928 -0.0771  1.0879
12502SOL    HW241154   5.857   9.641   1.297  0.3334 -0.9252  0.9365
12504SOL     OW41155   2.660   8.917   0.382 -0.0680 -0.7654  0.0359
12504SOL    HW141156   2.649   8.934   0.284  0.7678 -0.0206  0.0650
12504SOL    HW241157   2.658   8.818   0.399  0.7887 -0.9411 -0.8597
12505SOL     OW41158   3.432   0.798   1.567 -0.0686 -0.1889 -0.1461
12505SOL    HW141159   3.380   0.868   1.618  0.4395  0.8232 -0.9930
12505SOL    HW241160   3.492   0.749   1.630 -1.2851 -0.6514  0.6591
12506SOL     OW41161   8.753   0.676   1.739  0.7925  0.4754 -0.1117
12506SOL    HW141162   8.724   0.669   1.643  0.6503 -1.7882  0.0741
12506SOL    HW241163   8.672   0.670   1.798  1.1829 -1.5194  0.2527
12507SOL     OW41164   4.040   1.719   4.269 -0.2737  0.2389 -0.1432
12507SOL    HW141165   4.131   1.702   4.230  0.2064  1.7897  0.2750
12507SOL    HW241166   3.970   1.690   4.204  0.4914 -2.8075  0.3142
12508SOL     OW41167   3.129   7.420   1.761 -0.1499 -0.4895 -0.7815
12508SOL    HW141168   3.082   7.467   1.836  0.5995 -1.0229  0.0463
12508SOL    HW241169   3.215   7.383   1.795  1.5269  1.6224 -2.6005
12509SOL     OW41170   1.030   4.000   3.941 -0.1215  0.0193  0.1258
12509SOL    HW141171   1.002   4.010   3.845  0.1039  0.1044  0.0691
12509SOL    HW241172   1.067   4.086   3.975 -0.8162  0.1734  0.4924
12510SOL     OW41173   6.329   0.895   2.436 -0.1902  0.3281  0.3696
12510SOL    HW141174   6.357   0.800   2.441 -0.9549  0.1145  0.6170
12510SOL    HW241175   6.402   0.954   2.471  0.9295 -0.0489 -1.2915
12511SOL     OW41176   1.026   1.632   2.972 -0.4650 -0.3661 -0.3820
12511SOL    HW141177   1.065   1.676   2.891  0.9380  0.5527  0.7547
12511SOL    HW241178   1.000   1.702   3.039 -0.4257 -1.1579  0.4789
12512SOL     OW41179   0.661   0.691   2.181  0.4175 -0.2047  0.0387
12512SOL    HW141180   0.615   0.775   2.154  0.2447 -0.5025 -0.5980
12512SOL    HW241181   0.619   0.613   2.134 -1.0105 -0.9351  2.4169
12513SOL     OW41182   0.620   8.506   4.175 -0.3446 -0.1640  0.0377
12513SOL    HW141183   0.656   8.434   4.115  1.0166  1.0127 -0.5940
12513SOL    HW241184   0.560   8.465   4.244  1.1253 -2.0079  0.2521
12515SOL     OW41185   9.784   1.927   2.269  0.3862 -0.2342  0.5716
12515SOL    HW141186   9.730   2.010   2.254  0.2522 -0.2152  1.1759
12515SOL    HW241187   9.856   1.921   2.200  1.3950  1.1959  1.4959
12518SOL     OW41188   3.589   2.093   1.352  0.0543  0.0034  0.4106
12518SOL    HW141189   3.601   2.097   1.451 -0.0051  1.2009  0.3820
12518SOL    HW241190   3.678   2.096   1.307  0.0179  1.0713  0.3948
12520SOL     OW41191   5.027   4.915   1.008  0.0509  0.6667 -0.4355
12520SOL    HW141192   5.035   4.888   1.104 -0.3373  1.1162 -0.2769
12520SOL    HW241193   4.991   5.008   1.003 -0.1411  0.5581 -1.0229
12521SOL     OW41194   8.196   6.932   0.404 -0.5826  0.4185 -0.7125
12521SOL    HW141195   8.231   7.009   0.350  2.8120 -1.0134 -0.6859
12521SOL    HW241196   8.192   6.850   0.346 -2.9478  0.2640 -0.4004
12522SOL     OW41197   1.028   6.015   1.534 -0.5878  0.1913 -0.0733
12522SOL    HW141198   1.127   5.998   1.529 -0.9199 -1.7989 -0.5133
12522SOL    HW241199   0.982   5.961   1.463 -2.1157  0.0760  0.9925
12523SOL     OW41200   7.470   7.490   3.927 -0.5621 -0.3264  0.0076
12523SOL    HW141201   7.570   7.502   3.931 -0.5398 -0.7224  0.7835
12523SOL    HW241202   7.447   7.396   3.950 -0.9232 -1.0893 -3.3299
12524SOL     OW41203   0.089   2.578   0.383 -0.0298 -0.0173 -0.5897
12524SOL    HW141204   0.140   2.571   0.297 -1.7740 -1.2085 -1.5488
12524SOL    HW241205  -0.003   2.541   0.371 -0.2257 -0.4289  1.8741
12525SOL     OW41206   9.372   6.462   1.281 -0.1057 -0.2379 -0.2007
12525SOL    HW141207   9.353   6.548   1.233  0.3342 -0.0869 -0.1075
12525SOL    HW241208   9.289   6.407   1.284 -0.2896  0.0086 -0.6195
12526SOL     OW41209   0.052   4.594   1.065  0.4300 -0.3549 -0.1511
12526SOL    HW141210   0.040   4.653   0.985  2.9817 -0.9433 -1.0117
12526SOL    HW241211   0.044   4.498   1.037  0.3476 -0.5337  0.4842
12527SOL     OW41212   4.208   9.516   4.214  0.0873 -0.5372 -0.2733
12527SOL    HW141213   4.180   9.611   4.203 -0.3434 -0.4678  1.2586
12527SOL    HW241214   4.256   9.505   4.301  0.1321 -1.7168 -0.4328
12528SOL     OW41215   2.125   6.500   1.446  0.4599 -0.1339  0.1266
12528SOL    HW141216   2.113   6.521   1.543  0.1236 -0.6374  0.1970
12528SOL    HW241217   2.059   6.552   1.393  0.7206  0.2290  0.1586
12529SOL     OW41218   9.626   6.242   4.216  0.2193  0.0756  0.2114
12529SOL    HW141219   9.643   6.155   4.262  0.6888  0.7665  1.3516
12529SOL    HW241220   9.585   6.224   4.126 -0.1864 -1.2942  0.6550
12530SOL     OW41221   6.514   9.630   2.620  0.3662  0.0840  0.5459
12530SOL    HW141222   6.560   9.638   2.708  1.8084  0.4698 -0.2409
12530SOL    HW241223   6.581   9.634   2.546 -0.5542 -2.7356 -0.5005
12532SOL     OW41224   9.794   7.994   1.675  0.0965 -0.0267 -0.0491
12532SOL    HW141225   9.844   7.923   1.725  1.3480  1.0148  0.2086
12532SOL    HW241226   9.850   8.077   1.670 -1.5552  1.1253  0.1250
12534SOL     OW41227   8.616   9.208   3.925 -0.3597  0.1176  0.0579
12534SOL    HW141228   8.685   9.163   3.869  0.0524  1.3356 -0.4311
12534SOL    HW241229   8.530   9.215   3.874 -0.2225  0.4906 -0.1284
12535SOL     OW41230   9.264   1.046   2.587  0.3434  0.6362 -0.2098
12535SOL    HW141231   9.225   1.137   2.574  1.0215  1.0810  0.8729
12535SOL    HW241232   9.345   1.051   2.644  0.7185 -0.5827 -0.6010
12536SOL     OW41233   5.216   0.113   2.347 -0.0011 -0.0916 -0.3671
12536SOL    HW141234   5.308   0.089   2.376 -0.3172 -2.2344 -1.0717
12536SOL    HW241235   5.149   0.054   2.392 -0.9132  0.3357 -1.1250
12537SOL     OW41236   0.163   5.875   2.402  0.1003 -0.1769  0.2010
12537SOL    HW141237   0.245   5.927   2.423  1.9235 -1.7857 -2.6765
12537SOL    HW241238   0.176   5.780   2.431 -0.3879 -0.6367 -1.0657
12538SOL     OW41239   2.926   6.716   2.305 -0.3914 -0.4442 -0.0056
12538SOL    HW141240   2.869   6.797   2.286 -0.0900 -0.2032  0.1135
12538SOL    HW241241   2.947   6.669   2.219 -1.3481 -0.9279  0.0102
12540SOL     OW41242   4.802   2.842   1.380 -0.0104  0.7562 -0.4141
12540SOL    HW141243   4.835   2.936   1.388  2.7250 -0.0984 -0.8785
12540SOL    HW241244   4.824   2.806   1.289  0.1110 -0.7133  0.1675
12541SOL     OW41245   2.697   7.079   0.759 -1.2196 -0.2406 -0.1123
12541SOL    HW141246   2.693   7.174   0.727  0.5759  0.3184  1.2260
12541SOL    HW241247   2.793   7.051   0.769 -1.7131 -1.3550  1.8431
12542SOL     OW41248   3.062   7.901   1.804  0.5016  0.6996 -0.2640
12542SOL    HW141249   3.158   7.905   1.779  0.8615  0.4943  1.0511
12542SOL    HW241250   3.019   7.990   1.787  1.2398  1.1817  0.3416
12543SOL     OW41251   8.674   4.292   1.744  0.1132 -0.4116 -0.9049
12543SOL    HW141252   8.727   4.330   1.668  2.0556 -0.3586  0.4173
12543SOL    HW241253   8.601   4.235   1.709 -0.2291  1.1639 -2.8425
12544SOL     OW41254   3.041   1.756   4.356 -0.4882  0.2242 -0.0002
12544SOL    HW141255   3.135   1.789   4.360  0.1226 -1.3499 -0.7836
12544SOL    HW241256   3.040   1.657   4.370 -1.7730 -0.1346 -2.3212
12545SOL     OW41257   4.112   4.021   0.946  0.1428  0.1819 -0.4878
12545SOL    HW141258   4.144   3.940   0.896 -0.3134  1.7533 -3.4194
12545SOL    HW241259   4.186   4.054   1.005  0.6355 -1.8325  0.0561
12547SOL     OW41260   5.011   0.772   2.630  0.4513 -0.5777 -0.7201
12547SOL    HW141261   4.995   0.862   2.670  1.7417 -0.6112 -0.1080
12547SOL    HW241262   5.096   0.774   2.576  0.8122 -1.5797 -0.2028
12548SOL     OW41263   8.397   4.113   3.775  0.5241 -0.3386  0.7702
12548SOL    HW141264   8.471   4.067   3.824  1.2652 -1.4024 -1.3090
12548SOL    HW241265   8.333   4.045   3.739 -0.1479  0.4469  0.4581
12549SOL     OW41266   6.142   9.118   2.943 -0.0320 -0.0165 -0.0313
12549SOL    HW141267   6.154   9.072   2.855  1.2769 -0.1887  0.2295
12549SOL    HW241268   6.222   9.173   2.962  0.4227 -1.2858  1.8300
12550SOL     OW41269   8.848   3.910   3.800  0.2317 -0.0084 -0.0778
12550SOL    HW141270   8.775   3.978   3.810 -0.6904 -1.0096  0.1100
12550SOL    HW241271   8.808   3.822   3.771  1.1424 -1.0409  1.7096
12551SOL     OW41272   7.849   5.020   1.054  0.2203 -0.1046 -0.3644
12551SOL    HW141273   7.873   5.037   1.150 -1.7917  0.4945  0.0739
12551SOL    HW241274   7.931   5.022   0.998  1.1665  1.9185  1.0314
12553SOL     OW41275   3.152   6.460   2.766 -0.1320 -0.3079 -0.0196
12553SOL    HW141276   3.239   6.507   2.753  0.1305 -0.2807  1.7954
12553SOL    HW241277   3.165   6.362   2.756 -0.6103 -0.0986 -3.4316
12554SOL     OW41278   3.259   6.385   0.623  0.1655 -0.2381 -0.2066
12554SOL    HW141279   3.246   6.286   0.614 -1.4904  0.0618 -1.2723
12554SOL    HW241280   3.195   6.421   0.691  0.9791  0.0756  0.4114
12555SOL     OW41281   2.530   9.631   3.948  0.2756  0.0220  0.1076
12555SOL    HW141282   2.588   9.632   3.866  0.8761  1.5796  0.5319
12555SOL    HW241283   2.570   9.691   4.017 -1.0076 -0.1504  1.0004
12556SOL     OW41284   6.882   7.931   2.650  0.1135  0.2589 -0.1960
12556SOL    HW141285   6.812   7.860   2.644  0.6549 -0.2944  0.0061
12556SOL    HW241286   6.910   7.942   2.746  0.7561  0.0437 -0.3606
12557SOL     OW41287   9.052   2.639   3.289  0.1897  0.0929  0.1221
12557SOL    HW141288   9.087   2.721   3.244 -0.2858 -0.6518 -1.6053
12557SOL    HW241289   8.958   2.622   3.260  0.0857 -0.7444  0.9148
12558SOL     OW41290   8.570   0.442   1.023  0.1086 -0.6932  0.6377
12558SOL    HW141291   8.518   0.480   1.098 -0.0748  0.0672  0.1256
12558SOL    HW241292   8.544   0.486   0.937  1.5484 -0.3348  0.3604
12559SOL     OW41293   3.238   5.621   4.111  0.2253  0.1785 -0.1382
12559SOL    HW141294   3.161   5.644   4.052 -0.4048  1.0149  0.9767
12559SOL    HW241295   3.305   5.695   4.108  0.0192  0.3944  0.4617
12561SOL     OW41296   1.211   3.441   3.551 -0.2541 -0.0816 -0.2477
12561SOL    HW141297   1.180   3.498   3.476 -1.4758 -1.3192 -0.7026
12561SOL    HW241298   1.153   3.359   3.557  1.4287 -1.2489  0.4131
12562SOL     OW41299   7.847   2.249   4.314 -0.4880  0.3174  0.2895
12562SOL    HW141300   7.867   2.328   4.371  0.3093 -0.4596  1.1004
12562SOL    HW241301   7.930   2.195   4.302 -1.0707 -0.4950 -0.0986
12564SOL     OW41302   7.978   7.930   2.279 -0.2737  0.2266  0.0587
12564SOL    HW141303   7.937   7.853   2.327  0.0925 -0.0448 -0.0598
12564SOL    HW241304   7.987   8.008   2.341 -2.0151  0.6625 -0.2164
12566SOL     OW41305   9.084   7.078   0.360  0.3183  0.6335  0.0856
12566SOL    HW141306   9.028   7.157   0.386 -0.1542  0.2692  0.1827
12566SOL    HW241307   9.088   7.014   0.437 -0.6498 -0.2003 -0.5439
12567SOL     OW41308   1.081   4.722   2.329  0.2359  0.1256 -0.0517
12567SOL    HW141309   1.015   4.699   2.257  1.4192  0.1960 -1.1708
12567SOL    HW241310   1.059   4.669   2.412 -0.6198 -0.5996 -0.7253
12568SOL     OW41311   7.486   2.738   0.508 -0.0742 -0.4389 -0.7511
12568SOL    HW141312   7.527   2.656   0.467  0.4375 -0.4680 -0.1861
12568SOL    HW241313   7.448   2.715   0.598 -1.6292 -0.4862 -1.3999
12569SOL     OW41314   3.306   6.688   3.342  0.0133 -0.1091 -0.0898
12569SOL    HW141315   3.258   6.745   3.410 -1.2383 -1.8721  0.5319
12569SOL    HW241316   3.241   6.660   3.271  0.4449 -1.3676  0.0115
12570SOL     OW41317   9.689   0.828   1.667 -0.3001  0.1711  0.6011
12570SOL    HW141318   9.741   0.797   1.746  0.1370  2.5762  1.3184
12570SOL    HW241319   9.602   0.868   1.698 -0.4501  0.4581 -0.1807
12571SOL     OW41320   1.304   3.900   2.973 -0.8177  0.0751 -0.1865
12571SOL    HW141321   1.231   3.843   2.935 -1.2916  0.7613 -0.3063
12571SOL    HW241322   1.275   3.995   2.975  0.1362  0.3824 -0.4017
12572SOL     OW41323   1.360   4.184   0.712  0.3972  0.4665  0.3842
12572SOL    HW141324   1.458   4.166   0.718  0.4514  0.4998 -0.3523
12572SOL    HW241325   1.310   4.097   0.713  0.4599  0.4293  0.3187
12573SOL     OW41326   8.402   6.032   3.541 -0.0898 -0.4255 -0.8177
12573SOL    HW141327   8.368   6.102   3.604 -2.4406 -1.4518 -0.8656
12573SOL    HW241328   8.435   6.075   3.457 -1.6513  0.6328 -0.9114
12574SOL     OW41329   3.600   1.265   4.427 -0.0174 -0.9150  1.2122
12574SOL    HW141330   3.511   1.264   4.473 -0.5445  0.1967  0.2394
12574SOL    HW241331   3.672   1.281   4.494 -0.7057 -0.0744  1.7555
12575SOL     OW41332   0.935   2.756   3.790 -0.1838  0.0315 -0.2294
12575SOL    HW141333   0.976   2.666   3.808 -1.0944 -0.3573 -0.1133
12575SOL    HW241334   0.972   2.793   3.704  0.3617 -0.3494 -0.1580
12576SOL     OW41335   1.236   5.275   2.829 -0.0382 -0.1242 -0.2055
12576SOL    HW141336   1.251   5.216   2.909  1.8504 -0.6831 -0.9405
12576SOL    HW241337   1.221   5.219   2.748  2.9620  0.3247 -1.1393
12577SOL     OW41338   1.875   5.415   4.250 -0.1711  0.6334  0.2381
12577SOL    HW141339   1.779   5.398   4.272  0.1717 -0.3275  1.0481
12577SOL    HW241340   1.882   5.457   4.159 -1.3154  0.1711 -0.0724
12578SOL     OW41341   0.873   7.861   4.296  0.0858 -0.5742  0.1657
12578SOL    HW141342   0.849   7.854   4.200  5.1560  1.1040 -1.4125
12578SOL    HW241343   0.916   7.775   4.326  1.2279 -0.0661  0.0260
12580SOL     OW41344   2.379   2.308   4.363 -0.8348 -0.0630 -0.1293
12580SOL    HW141345   2.444   2.235   4.344 -1.0046 -0.1105 -0.5437
12580SOL    HW241346   2.287   2.278   4.338 -0.8873  0.3397 -0.4341
12581SOL     OW41347   4.662   6.188   1.946  0.1707 -0.0432  0.0134
12581SOL    HW141348   4.745   6.218   1.993  0.5755 -0.8800 -0.1652
12581SOL    HW241349   4.678   6.099   1.904 -0.1942  0.6973 -1.6996
12582SOL     OW41350   3.892   4.631   2.260 -0.0249  0.2348  0.2682
12582SOL    HW141351   3.842   4.661   2.178 -0.0938 -2.5946 -0.7818
12582SOL    HW241352   3.989   4.620   2.238  0.1027  0.2850  0.7990
12583SOL     OW41353   4.316   4.247   1.671 -0.0216  0.5795  0.2528
12583SOL    HW141354   4.371   4.309   1.727  0.7127  0.1976 -0.0250
12583SOL    HW241355   4.376   4.176   1.633 -1.0866 -1.1420  1.7406
12584SOL     OW41356   9.731   6.199   1.944 -0.4986  0.6641 -0.5551
12584SOL    HW141357   9.805   6.193   1.877 -1.1009 -1.4226 -1.0857
12584SOL    HW241358   9.750   6.137   2.020 -1.2272  0.8317 -0.2339
12585SOL     OW41359   2.230   5.811   1.787  0.5441  0.5760  0.6685
12585SOL    HW141360   2.193   5.727   1.828 -1.1123  1.2336  0.5528
12585SOL    HW241361   2.157   5.860   1.740  2.1102  0.6307 -1.7846
12586SOL     OW41362   0.430   3.550   1.695 -0.2557 -0.3559  0.5503
12586SOL    HW141363   0.503   3.503   1.744  0.4066 -0.6161 -0.6549
12586SOL    HW241364   0.410   3.502   1.609 -0.8628  0.5021  0.1947
12587SOL     OW41365   3.677   6.790   3.968  0.3607  0.2455  0.3130
12587SOL    HW141366   3.725   6.834   3.893 -0.4386 -0.4447 -0.6161
12587SOL    HW241367   3.635   6.860   4.026  1.0977  0.7866  0.2092
12588SOL     OW41368   2.312   6.783   3.276  0.2349 -0.0678 -0.1561
12588SOL    HW141369   2.259   6.840   3.213  0.1414  0.6737  0.5820
12588SOL    HW241370   2.366   6.841   3.337 -1.4459 -0.6663  2.0016
12589SOL     OW41371   5.489   1.590   2.955  0.3513 -0.6928  0.6112
12589SOL    HW141372   5.533   1.516   3.004  2.0878 -0.2936 -0.2955
12589SOL    HW241373   5.390   1.572   2.948  0.1492 -1.0349  3.6526
12592SOL     OW41374   1.602   6.385   2.269 -0.0129  0.1339  0.0472
12592SOL    HW141375   1.669   6.439   2.319  0.2208  0.2046 -0.3461
12592SOL    HW241376   1.557   6.443   2.201 -0.1469 -0.0304 -0.0036
12593SOL     OW41377   8.807   7.321   3.272 -0.1069 -0.0089 -0.1781
12593SOL    HW141378   8.887   7.334   3.331 -0.4770 -0.5908  0.4591
12593SOL    HW241379   8.740   7.264   3.320 -1.6819  1.9574  0.0145
12594SOL     OW41380   2.108   7.142   2.533  0.3124 -0.0212  0.1495
12594SOL    HW141381   2.080   7.071   2.597  1.6511  0.3740  1.1995
12594SOL    HW241382   2.181   7.107   2.474  1.4544  0.6775  1.1256
12595SOL     OW41383   8.412   7.855   2.744 -0.1591 -0.1156 -0.2918
12595SOL    HW141384   8.448   7.829   2.833 -0.3068  1.4583  0.2428
12595SOL    HW241385   8.331   7.911   2.756  0.1394  0.5764 -1.4065
12596SOL     OW41386   4.689   2.613   2.095 -0.0941 -0.1678  0.5360
12596SOL    HW141387   4.689   2.552   2.174 -3.8201  0.3166  0.9859
12596SOL    HW241388   4.687   2.708   2.127  0.7334  0.0944 -0.1699
12598SOL     OW41389   0.960   4.311   3.571 -0.3825 -0.5707 -0.0807
12598SOL    HW141390   0.988   4.352   3.657  0.6226 -0.1696 -0.5903
12598SOL    HW241391   0.990   4.369   3.495 -1.4871 -0.7872 -0.6922
12599SOL     OW41392   1.658   8.071   2.623  0.2968 -0.3470 -0.2465
12599SOL    HW141393   1.633   8.167   2.630 -1.7463 -0.6156 -3.1033
12599SOL    HW241394   1.620   8.020   2.700 -1.1280  0.6566 -0.2760
12600SOL     OW41395   1.404   7.314   1.887  0.4265  0.0637 -0.4819
12600SOL    HW141396   1.406   7.412   1.865 -1.6315  0.3321  0.3479
12600SOL    HW241397   1.340   7.268   1.825  0.1336 -0.4491  0.1914
12601SOL     OW41398   6.297   0.340   2.936  0.5387 -0.2869 -0.7739
12601SOL    HW141399   6.340   0.415   2.986  0.3621 -0.0677 -0.9429
12601SOL    HW241400   6.218   0.376   2.885 -1.2853 -1.1100  1.3974
12602SOL     OW41401   4.487   0.502   3.366 -0.6235 -0.1748  0.4162
12602SOL    HW141402   4.504   0.432   3.296 -0.1535  0.1124  0.2332
12602SOL    HW241403   4.511   0.466   3.456  1.4239  0.3451  0.1229
12603SOL     OW41404   2.765   9.278   3.720 -0.0625  0.6388 -0.2172
12603SOL    HW141405   2.840   9.335   3.753 -0.4819  0.5386  0.9449
12603SOL    HW241406   2.680   9.331   3.722 -0.6150 -0.2654  1.7032
12604SOL     OW41407   0.709   0.631   1.349 -0.1297  0.7153  0.0204
12604SOL    HW141408   0.801   0.598   1.331 -0.2469  1.0826 -1.3216
12604SOL    HW241409   0.642   0.565   1.315 -0.3548  1.5916 -1.2998
12605SOL     OW41410   5.176   9.813   1.887  0.1389  0.0757  0.4344
12605SOL    HW141411   5.248   9.879   1.866  1.4366 -1.6151 -0.5314
12605SOL    HW241412   5.216   9.731   1.928 -1.3382 -0.5072  0.7745
12606SOL     OW41413   3.584   1.740   1.616 -0.6421  0.2259  0.0711
12606SOL    HW141414   3.607   1.750   1.713 -2.5840  2.3373  0.3501
12606SOL    HW241415   3.662   1.770   1.561  0.4022 -0.7867  0.9574
12607SOL     OW41416   2.984   7.131   0.799 -0.0092  0.3438 -0.0884
12607SOL    HW141417   3.064   7.080   0.831 -0.7775 -0.9871 -0.2782
12607SOL    HW241418   2.994   7.151   0.701 -1.2561 -2.4059 -0.8053
12608SOL     OW41419   6.064   0.628   3.182  0.3716  0.0522  0.5606
12608SOL    HW141420   5.985   0.581   3.222  1.0335  0.0286  1.8676
12608SOL    HW241421   6.146   0.574   3.200  0.5574 -0.5314 -1.8189
12609SOL     OW41422   1.899   0.074   4.050 -0.2499  0.4416 -0.1598
12609SOL    HW141423   1.875   0.041   3.959 -2.0138 -0.0807  0.4833
12609SOL    HW241424   1.967   0.013   4.091  0.6782  0.7719 -1.1799
12612SOL     OW41425   9.816   6.807   3.979  0.1044 -0.2209  0.3809
12612SOL    HW141426   9.773   6.836   4.064  0.7760  0.9780  0.3255
12612SOL    HW241427   9.912   6.832   3.980  0.0924 -0.1088 -0.7789
12613SOL     OW41428   0.577   0.752   3.628 -0.6686  0.2871 -0.2184
12613SOL    HW141429   0.651   0.715   3.683 -1.8901  0.5651  1.6364
12613SOL    HW241430   0.594   0.731   3.531  1.5313 -0.1190  0.2258
12614SOL     OW41431   9.971   5.588   3.018 -0.4302 -0.0896 -0.3457
12614SOL    HW141432   9.968   5.616   2.922 -0.8352 -1.4123 -0.7208
12614SOL    HW241433   9.909   5.511   3.033 -2.7302  2.0519  1.6431
12615SOL     OW41434   4.518   1.668   4.305 -0.1781 -0.1062 -0.2117
12615SOL    HW141435   4.483   1.710   4.388  0.5568  0.8318 -0.3663
12615SOL    HW241436   4.461   1.590   4.281 -0.6403 -0.1362  0.9390
12617SOL     OW41437   1.021   6.705   0.574 -0.2759  0.1359 -0.4699
12617SOL    HW141438   1.009   6.619   0.624  1.7516 -0.1607 -0.4278
12617SOL    HW241439   0.933   6.739   0.543 -1.0769 -2.1519 -0.7830
12618SOL     OW41440   5.798   0.534   2.075 -0.1278  1.0055  0.4894
12618SOL    HW141441   5.719   0.494   2.028  0.7411 -0.1450 -0.0403
12618SOL    HW241442   5.775   0.552   2.170 -0.5930 -0.6852  0.7189
12619SOL     OW41443   3.084   9.579   2.337 -0.0225 -0.3812 -0.0883
12619SOL    HW141444   3.034   9.665   2.334 -1.1636 -1.0474 -0.1928
12619SOL    HW241445   3.020   9.503   2.348  0.7886 -1.3930 -2.0783
12621SOL     OW41446   1.088   7.097   1.035  0.2372  0.4683 -0.1336
12621SOL    HW141447   1.120   7.031   0.967 -0.6469 -0.8182  0.6928
12621SOL    HW241448   1.035   7.168   0.990  1.9009  1.1084 -1.1471
12623SOL     OW41449   7.279   9.289   2.954  0.1336 -0.1488  0.4206
12623SOL    HW141450   7.291   9.368   3.014  2.3352  0.7867 -1.2048
12623SOL    HW241451   7.363   9.272   2.902 -1.4709 -1.3354 -1.9155
12624SOL     OW41452   3.225   8.971   0.539  0.1657  0.4516 -0.0136
12624SOL    HW141453   3.205   9.067   0.518 -0.6418  0.6882  1.7150
12624SOL    HW241454   3.171   8.912   0.478  0.9622  1.0716 -1.3508
12625SOL     OW41455   9.473   2.678   0.580 -0.2624 -0.5225  0.3820
12625SOL    HW141456   9.389   2.690   0.528 -0.3717 -0.8195  0.4838
12625SOL    HW241457   9.533   2.757   0.567 -2.1695  1.5113  3.2847
12627SOL     OW41458   7.561   9.594   2.062 -0.2903  0.2244 -0.2740
12627SOL    HW141459   7.627   9.559   2.129 -2.8269 -0.6281  1.8768
12627SOL    HW241460   7.605   9.663   2.005  2.2359  0.2779  1.6397
12628SOL     OW41461   9.103   3.243   0.808  0.1306  0.0155 -0.5267
12628SOL    HW141462   9.012   3.273   0.780  0.3180 -0.2045 -1.3992
12628SOL    HW241463   9.096   3.181   0.886 -0.3397  1.4505  0.6004
12629SOL     OW41464   3.105   1.932   0.712 -0.4508  0.4446  0.0791
12629SOL    HW141465   3.107   1.881   0.798 -4.1844 -3.5013 -1.9996
12629SOL    HW241466   3.013   1.967   0.697 -0.3747 -0.5989 -3.2081
12630SOL     OW41467   5.661   7.789   4.141  0.3317 -0.1441 -0.6893
12630SOL    HW141468   5.682   7.879   4.180  0.7963 -0.7782  0.5517
12630SOL    HW241469   5.745   7.735   4.134  0.0994 -0.3871 -1.7000
12631SOL     OW41470   2.894   7.790   2.256  0.1419 -0.2471 -0.1880
12631SOL    HW141471   2.820   7.792   2.188  0.7723 -1.5358 -0.9366
12631SOL    HW241472   2.876   7.715   2.321  0.7533 -0.5176 -0.3322
12632SOL     OW41473   4.377   4.253   2.425  0.2443  0.1419  0.0803
12632SOL    HW141474   4.358   4.155   2.433 -0.7140  0.3339  0.2990
12632SOL    HW241475   4.459   4.267   2.370 -0.0019 -0.7671 -0.5316
12634SOL     OW41476   6.833   8.944   4.294  0.0353 -0.0111  0.0314
12634SOL    HW141477   6.825   9.035   4.335  2.7300  0.6755 -0.8812
12634SOL    HW241478   6.924   8.907   4.311 -0.6460 -2.0723 -0.6123
12635SOL     OW41479   9.213   2.212   0.732  0.4976 -0.0312 -0.5198
12635SOL    HW141480   9.291   2.157   0.761  0.6631  1.1768  1.4059
12635SOL    HW241481   9.245   2.303   0.704 -0.3146  0.9465  1.6004
12637SOL     OW41482   9.199   9.573   3.658 -0.3075 -0.3170 -0.3083
12637SOL    HW141483   9.144   9.569   3.741 -1.5104 -1.4823 -1.1208
12637SOL    HW241484   9.224   9.668   3.639 -3.6540  0.5225 -0.9011
12639SOL     OW41485   8.289   4.142   1.139  0.3107  0.5674 -0.2861
12639SOL    HW141486   8.342   4.078   1.193  1.9042 -0.2960 -2.7613
12639SOL    HW241487   8.193   4.113   1.136  1.0720 -1.9145 -1.6439
12640SOL     OW41488   0.370   0.078   0.537 -0.4191  0.5648 -0.0126
12640SOL    HW141489   0.413   0.109   0.622  0.1995  1.2982 -0.5823
12640SOL    HW241490   0.406  -0.011   0.511  0.6343  1.0848 -0.3798
12641SOL     OW41491   8.989   7.348   2.583  0.1659  0.8421  0.5101
12641SOL    HW141492   9.011   7.363   2.486 -0.4259 -0.6825  0.1194
12641SOL    HW241493   8.911   7.404   2.609 -0.7414  0.0115 -0.3669
12642SOL     OW41494   0.715   3.523   0.978 -0.1824  0.0504 -0.5364
12642SOL    HW141495   0.632   3.475   0.948 -0.1252  0.2138 -0.9587
12642SOL    HW241496   0.703   3.621   0.964  0.6100 -0.0291 -1.9003
12644SOL     OW41497   1.780   2.533   0.238 -0.1888 -0.2633 -0.0561
12644SOL    HW141498   1.728   2.590   0.302 -0.7474  0.4266 -1.1104
12644SOL    HW241499   1.820   2.456   0.288 -2.3151 -0.8766  0.7679
12645SOL     OW41500   1.460   9.973   1.298 -0.0049  0.1337  0.1356
12645SOL    HW141501   1.398  10.041   1.258 -0.9687 -0.8510 -0.0799
12645SOL    HW241502   1.423   9.882   1.282  1.6582 -0.4843 -0.2139
12646SOL     OW41503   4.870   1.685   3.770  0.3869 -0.8299  0.2232
12646SOL    HW141504   4.841   1.779   3.788 -0.4443 -0.9117 -0.6760
12646SOL    HW241505   4.871   1.634   3.856  0.2765 -0.1521  0.6292
12647SOL     OW41506   0.173   3.856   0.120 -0.5954 -0.7582  0.4407
12647SOL    HW141507   0.073   3.858   0.121 -0.5744  0.6510  2.2005
12647SOL    HW241508   0.207   3.928   0.060 -0.6084 -2.6316 -1.9233
12649SOL     OW41509   5.270   7.920   4.093  0.0525 -0.3996  0.0459
12649SOL    HW141510   5.342   7.959   4.152 -0.3577 -1.3098  1.1800
12649SOL    HW241511   5.312   7.881   4.011  0.6534  0.7495 -0.2022
12650SOL     OW41512   0.480   2.247   0.931  0.6609  0.0116 -0.1485
12650SOL    HW141513   0.492   2.260   0.833 -0.1532 -0.2321 -0.2793
12650SOL    HW241514   0.425   2.166   0.948 -1.2282  1.3731  0.4392
12651SOL     OW41515   2.100   0.429   1.366 -0.0768 -0.3870  0.3789
12651SOL    HW141516   2.001   0.439   1.374  0.0444  0.0474  1.4069
12651SOL    HW241517   2.135   0.499   1.303 -0.2289  0.5851  1.3434
12652SOL     OW41518   8.348   1.275   4.342  0.5170  0.2292 -0.0485
12652SOL    HW141519   8.369   1.187   4.299 -0.6410  0.6386 -1.4672
12652SOL    HW241520   8.273   1.264   4.406  0.3463  0.1887 -0.2549
12653SOL     OW41521   3.422   3.704   0.676  0.0003 -0.6758 -0.0186
12653SOL    HW141522   3.367   3.689   0.758 -0.4732  0.8730 -0.0424
12653SOL    HW241523   3.509   3.747   0.701 -0.1485 -0.1929 -0.3243
12654SOL     OW41524   7.743   2.270   1.850 -0.3190  0.1484  0.4036
12654SOL    HW141525   7.734   2.198   1.918 -1.1743 -0.1383  0.0015
12654SOL    HW241526   7.652   2.295   1.816  0.0929  0.3392 -0.5699
12655SOL     OW41527   2.672   4.584   2.060 -0.4270  0.1992 -0.2133
12655SOL    HW141528   2.769   4.563   2.048 -0.4552  0.2333 -0.5023
12655SOL    HW241529   2.641   4.549   2.149 -0.7728 -2.0530 -1.2000
12656SOL     OW41530   2.602   8.279   2.879  0.1254  0.1427 -0.1482
12656SOL    HW141531   2.510   8.257   2.909  0.1971  0.6122  0.4174
12656SOL    HW241532   2.609   8.264   2.780 -0.3971 -0.4102 -0.1072
12657SOL     OW41533   8.857   8.809   2.348  0.4488  0.8547  0.1125
12657SOL    HW141534   8.919   8.797   2.425  1.9851  0.0897 -1.2087
12657SOL    HW241535   8.893   8.880   2.287  1.0666 -0.9070 -1.6420
12658SOL     OW41536   3.927   7.738   3.688  0.3667  0.2167 -0.3284
12658SOL    HW141537   3.851   7.672   3.689 -0.1867  0.8568  0.0192
12658SOL    HW241538   4.013   7.689   3.674  0.1198 -0.7639  1.3989
12659SOL     OW41539   0.519   2.582   1.275  0.1483 -0.6142  0.2761
12659SOL    HW141540   0.463   2.526   1.336  0.2047  0.0853  0.9900
12659SOL    HW241541   0.551   2.527   1.199 -0.7500 -1.2568  0.3501
12660SOL     OW41542   2.247   1.968   4.278  0.1493 -0.4039  0.0432
12660SOL    HW141543   2.159   2.006   4.306 -0.4116 -0.6928 -1.3161
12660SOL    HW241544   2.264   1.883   4.326 -1.5363 -1.7182 -1.6247
12661SOL     OW41545   0.287   8.154   0.663  0.5960 -0.1618 -0.1173
12661SOL    HW141546   0.281   8.193   0.755  1.0714  0.8302 -0.4973
12661SOL    HW241547   0.302   8.055   0.670  0.7435 -0.0789  0.8738
12662SOL     OW41548   4.287   3.299   2.507 -0.3356  0.5770 -0.2553
12662SOL    HW141549   4.370   3.289   2.452 -0.2630  0.9384 -0.2112
12662SOL    HW241550   4.234   3.378   2.475  0.3643  1.5929  1.0355
12663SOL     OW41551   8.011   5.255   2.474  0.4136 -0.5251 -0.3634
12663SOL    HW141552   7.933   5.294   2.424  0.0898 -0.6591  0.0350
12663SOL    HW241553   8.047   5.322   2.538 -1.0396 -1.3407  1.3478
12664SOL     OW41554   8.303   5.253   4.119 -0.0412 -0.6505 -0.1801
12664SOL    HW141555   8.256   5.180   4.067  0.0816 -0.5924 -0.3732
12664SOL    HW241556   8.353   5.212   4.195  0.9522 -0.8903 -0.9588
12665SOL     OW41557   3.349   3.439   0.554 -0.3841 -0.3409 -0.3496
12665SOL    HW141558   3.259   3.452   0.595  0.0088  0.2041  0.3504
12665SOL    HW241559   3.410   3.513   0.582  0.5934 -1.2929  0.0784
12666SOL     OW41560   9.722   0.399   3.866  0.0504 -0.3707 -0.0190
12666SOL    HW141561   9.816   0.370   3.879  0.6795  2.1512  1.5277
12666SOL    HW241562   9.670   0.326   3.821  2.5948 -1.9702 -0.4728
12667SOL     OW41563   8.967   7.742   4.250 -0.0285  0.6755  0.0967
12667SOL    HW141564   9.027   7.662   4.253  0.6331  1.0636 -2.1281
12667SOL    HW241565   8.918   7.744   4.163  0.3034  2.9254 -0.0695
12668SOL     OW41566   2.151   9.852   3.396 -0.2191 -0.0303  0.8425
12668SOL    HW141567   2.076   9.897   3.445 -1.6620 -0.9059 -0.4931
12668SOL    HW241568   2.159   9.758   3.428  0.6290  0.1953  1.3069
12670SOL     OW41569   1.918   6.762   0.252 -0.1355  0.0776 -0.0681
12670SOL    HW141570   1.978   6.724   0.182  0.5944  1.4868 -0.2435
12670SOL    HW241571   1.863   6.690   0.293 -1.6220 -0.5950 -3.1029
12671SOL     OW41572   4.966   2.798   0.860 -0.1509  0.3766  0.2831
12671SOL    HW141573   5.037   2.728   0.849 -0.7710 -0.4783  1.5734
12671SOL    HW241574   4.903   2.793   0.783 -2.1583 -2.8384  2.0116
12672SOL     OW41575   2.745   2.257   0.938 -0.3530  0.5012 -0.7118
12672SOL    HW141576   2.827   2.277   0.884 -0.1205  1.5196 -0.0024
12672SOL    HW241577   2.767   2.186   1.005 -0.1243  0.5710 -0.7117
12673SOL     OW41578   5.410   8.821   1.889 -0.0408 -0.5663 -0.1391
12673SOL    HW141579   5.506   8.812   1.866  0.3276  1.1116  0.6225
12673SOL    HW241580   5.392   8.775   1.976  0.4445  0.5383  0.5556
12676SOL     OW41581   7.895   6.849   2.629 -0.6264  0.5077  0.1034
12676SOL    HW141582   7.953   6.776   2.665 -1.8344 -0.2109  0.6596
12676SOL    HW241583   7.847   6.893   2.705 -0.3757  1.4609 -0.2923
12677SOL     OW41584   8.981   5.010   1.371 -0.3687  0.1069  0.4665
12677SOL    HW141585   8.891   4.976   1.343  0.0835 -0.6778 -0.0460
12677SOL    HW241586   9.019   4.947   1.439  0.0286  0.1483  0.2784
12679SOL     OW41587   3.964   1.414   0.965  0.2477 -0.0148  0.0238
12679SOL    HW141588   3.970   1.364   0.878 -0.8316  0.0524 -0.0968
12679SOL    HW241589   3.882   1.384   1.014  1.2424 -0.5964  1.3628
12681SOL     OW41590   8.791   4.480   4.242  0.4078  0.0398 -0.8271
12681SOL    HW141591   8.803   4.535   4.159 -0.5030 -0.3209 -1.1982
12681SOL    HW241592   8.817   4.534   4.321 -0.9347  1.1712 -1.1514
12682SOL     OW41593   0.832   9.890   3.149  0.0727 -0.2940 -0.6389
12682SOL    HW141594   0.856   9.820   3.216  0.0467 -0.4409 -0.7824
12682SOL    HW241595   0.787   9.966   3.195 -0.4796 -0.6602 -0.5659
12683SOL     OW41596   3.869   5.457   1.207  0.0737 -0.2877  0.0964
12683SOL    HW141597   3.831   5.476   1.298  0.4634 -1.0300  0.4211
12683SOL    HW241598   3.942   5.523   1.188 -0.6778  0.4956 -0.0987
12684SOL     OW41599   7.964   1.382   1.222  0.2438 -0.3777 -0.2443
12684SOL    HW141600   7.878   1.351   1.261 -0.3270  2.4647  0.8505
12684SOL    HW241601   7.958   1.383   1.123 -0.8133 -0.6750 -0.1834
12685SOL     OW41602   4.608   4.079   2.254  0.3157  0.1043 -0.4191
12685SOL    HW141603   4.654   4.157   2.212 -3.4459  2.1609 -1.0082
12685SOL    HW241604   4.584   4.012   2.184 -1.4960  1.1736 -0.8672
12687SOL     OW41605   0.453   6.520   2.571 -0.2544  0.1346 -0.1919
12687SOL    HW141606   0.530   6.561   2.619 -0.4569  0.3259 -0.0261
12687SOL    HW241607   0.369   6.539   2.622 -0.4964  0.5310 -0.7320
12688SOL     OW41608   4.211   0.555   0.836 -0.0512  0.4473  0.0197
12688SOL    HW141609   4.221   0.649   0.803 -3.0710  0.3761 -1.2548
12688SOL    HW241610   4.217   0.554   0.936  1.0916  1.8239 -0.0278
12689SOL     OW41611   5.120   9.558   3.693  0.4379 -0.0517 -0.1873
12689SOL    HW141612   5.062   9.607   3.628  1.1355 -0.2757 -0.9966
12689SOL    HW241613   5.207   9.607   3.702  1.3399 -1.4090 -1.3937
12690SOL     OW41614   0.707   5.680   3.985  0.6703 -0.7332  0.2515
12690SOL    HW141615   0.694   5.635   3.897 -0.3263 -0.1903  0.1059
12690SOL    HW241616   0.625   5.669   4.041  0.8113 -0.0055  0.6158
12692SOL     OW41617   6.281   0.042   1.646  0.0192 -0.2891 -0.2851
12692SOL    HW141618   6.376   0.013   1.658 -0.4990 -0.9691  2.8186
12692SOL    HW241619   6.227  -0.034   1.610  0.1444 -0.7684  0.5265
12693SOL     OW41620   4.975   0.911   3.415 -0.4049  0.1933 -0.0260
12693SOL    HW141621   5.028   0.882   3.335 -1.1971 -0.1513 -0.4375
12693SOL    HW241622   5.025   0.889   3.498  0.5014  0.6884 -0.4261
12694SOL     OW41623   4.460   8.379   1.010 -0.4321 -0.2640  0.0195
12694SOL    HW141624   4.369   8.354   0.977 -1.0804  1.0952  0.6970
12694SOL    HW241625   4.507   8.433   0.940  0.0323 -1.3527 -0.5084
12695SOL     OW41626   1.006   5.825   2.201  0.1049 -0.5163 -0.1924
12695SOL    HW141627   0.974   5.918   2.216 -0.1107 -0.5151 -0.6600
12695SOL    HW241628   1.086   5.826   2.141  0.1468 -0.6283 -0.1403
12696SOL     OW41629   0.260   2.758   1.410  0.6614 -0.5698 -0.4488
12696SOL    HW141630   0.295   2.851   1.425 -3.9117  1.1900  0.0609
12696SOL    HW241631   0.235   2.718   1.498  0.2996 -1.3288 -0.8959
12699SOL     OW41632   7.851   5.339   3.369 -0.2819 -0.3945  0.3201
12699SOL    HW141633   7.815   5.337   3.462 -1.8117  0.8679 -0.2076
12699SOL    HW241634   7.779   5.372   3.307  2.0394  3.0993 -0.6720
12700SOL     OW41635   1.866   2.783   2.876 -0.0104 -0.3286 -0.2465
12700SOL    HW141636   1.943   2.741   2.923  0.2353  1.4550  0.9891
12700SOL    HW241637   1.782   2.766   2.928  0.2188  1.3994  0.7254
12701SOL     OW41638   9.787   1.601   4.441  0.0076  0.3228 -0.0450
12701SOL    HW141639   9.691   1.600   4.416 -0.4445 -2.3027  1.6235
12701SOL    HW241640   9.833   1.676   4.394 -2.9291  1.9243 -0.4744
12702SOL     OW41641   0.390   1.916   3.296 -0.0103  0.5131  0.6630
12702SOL    HW141642   0.436   1.990   3.247  1.7032 -0.9833 -0.0097
12702SOL    HW241643   0.308   1.952   3.341  0.7894  2.8109  0.3344
12703SOL     OW41644   1.300   2.843   2.764 -0.2325 -0.1563 -0.3548
12703SOL    HW141645   1.301   2.863   2.862  0.7557  1.0295 -0.5963
12703SOL    HW241646   1.388   2.806   2.737 -0.9846 -1.8665 -0.5375
12704SOL     OW41647   2.035   9.208   2.168 -0.1765 -0.6214  0.8113
12704SOL    HW141648   2.017   9.201   2.266  0.5001 -2.0118  0.8536
12704SOL    HW241649   2.125   9.248   2.153  0.3244 -1.7217  0.8063
12705SOL     OW41650   2.166   5.664   0.744 -0.3129 -0.3945 -0.2923
12705SOL    HW141651   2.103   5.587   0.734 -1.0188  0.2466 -0.8654
12705SOL    HW241652   2.155   5.725   0.666 -0.0501  0.4986  0.3717
12706SOL     OW41653   0.229   7.675   2.958  0.2355  0.1728  0.3693
12706SOL    HW141654   0.159   7.741   2.930 -0.0036 -0.3489 -0.2835
12706SOL    HW241655   0.188   7.609   3.021 -0.1838 -0.8345 -0.9260
12707SOL     OW41656   0.537   5.921   1.876  0.4888  0.0084 -0.7717
12707SOL    HW141657   0.494   5.906   1.787 -1.7244  1.1365  0.0497
12707SOL    HW241658   0.521   6.015   1.905  3.0084  0.2693 -0.1027
12708SOL     OW41659   8.252   8.293   4.276 -0.1909 -0.0836  0.3604
12708SOL    HW141660   8.340   8.338   4.284  1.2249 -2.7716  0.3921
12708SOL    HW241661   8.189   8.329   4.346  1.0054  1.4903  0.6466
12709SOL     OW41662   2.771   6.336   3.525 -0.1556  0.8762 -0.4071
12709SOL    HW141663   2.747   6.420   3.476  0.1509  2.1981  1.6522
12709SOL    HW241664   2.850   6.353   3.583 -1.3111 -0.2786  1.5485
12710SOL     OW41665   1.563   9.248   0.952  0.6390 -0.2366 -0.2201
12710SOL    HW141666   1.516   9.162   0.974  0.0439 -0.4003 -2.0377
12710SOL    HW241667   1.554   9.311   1.029 -0.1047 -1.2978  0.5893
12711SOL     OW41668   0.047   6.875   4.314  0.2524 -0.4439 -0.1651
12711SOL    HW141669   0.110   6.952   4.318  1.5610 -1.5209  0.7205
12711SOL    HW241670   0.059   6.819   4.396 -1.9670 -0.6056  0.0888
12712SOL     OW41671   4.702   4.313   2.141  0.1579 -0.5035  0.4969
12712SOL    HW141672   4.749   4.367   2.211 -0.2914 -1.3996  1.5028
12712SOL    HW241673   4.730   4.345   2.050  1.1994  0.2741  1.0788
12714SOL     OW41674   7.729   2.049   3.340 -0.3770 -0.2007 -0.3275
12714SOL    HW141675   7.696   2.103   3.417  0.2627  0.4228 -0.4805
12714SOL    HW241676   7.691   1.957   3.344 -0.9166  0.0520  0.3310
12715SOL     OW41677   2.728   5.246   0.664  0.1881 -0.3185  0.0924
12715SOL    HW141678   2.682   5.258   0.576  0.1037  0.3335  0.2176
12715SOL    HW241679   2.756   5.151   0.675  0.5415 -0.3228 -0.8079
12716SOL     OW41680   7.196   8.079   2.800  0.4072 -0.1595 -0.0040
12716SOL    HW141681   7.278   8.079   2.857 -1.0507 -0.0855  2.1395
12716SOL    HW241682   7.152   8.169   2.804  0.2759 -0.1506 -1.2578
12717SOL     OW41683   5.671   9.112   2.825  0.3446  0.0636 -0.2215
12717SOL    HW141684   5.756   9.067   2.855  0.8475  1.2621  0.1876
12717SOL    HW241685   5.597   9.090   2.888  0.5679 -0.2674 -0.0767
12718SOL     OW41686   5.035   9.898   3.478 -0.5554  0.0776  0.3488
12718SOL    HW141687   4.942   9.906   3.442  0.3334  1.2712 -1.7432
12718SOL    HW241688   5.048   9.966   3.550 -1.9742 -1.5763  2.2535
12720SOL     OW41689   9.203   8.984   3.754 -0.5485  0.4100 -0.2258
12720SOL    HW141690   9.191   9.082   3.742 -0.6199  0.2956 -1.0844
12720SOL    HW241691   9.116   8.942   3.780 -0.3605  0.6753  0.8634
12721SOL     OW41692   9.323   4.600   0.354  0.4498  0.2997  0.4892
12721SOL    HW141693   9.383   4.639   0.283  0.9758 -1.2523  0.0623
12721SOL    HW241694   9.303   4.670   0.422  0.8785  1.4923 -0.5843
12722SOL     OW41695   9.788   0.915   2.135 -0.0925 -0.2145 -0.2882
12722SOL    HW141696   9.846   0.994   2.117 -0.2418 -0.6238 -2.6830
12722SOL    HW241697   9.711   0.914   2.072 -1.3044 -1.1081  1.1546
12724SOL     OW41698   4.404   8.000   1.084 -0.0757  0.4345  0.3489
12724SOL    HW141699   4.450   7.940   1.019 -1.6067  0.2647 -0.6144
12724SOL    HW241700   4.339   8.059   1.035 -2.2320 -0.6369  1.8223
12725SOL     OW41701   3.879   6.639   2.202  0.5891 -0.6432 -0.1813
12725SOL    HW141702   3.930   6.560   2.170  1.7436 -0.2317  0.6093
12725SOL    HW241703   3.793   6.646   2.152  1.0011 -1.7281 -1.0538
12726SOL     OW41704   2.933   9.796   2.326 -0.0096  0.7228 -0.4574
12726SOL    HW141705   2.952   9.887   2.361 -1.1540  0.8920 -0.2834
12726SOL    HW241706   2.857   9.800   2.261 -0.7815 -0.2729  0.3753
12728SOL     OW41707   1.622   6.263   4.391  0.0223 -0.3289  0.2197
12728SOL    HW141708   1.529   6.229   4.381 -0.3574  0.8155 -0.2054
12728SOL    HW241709   1.624   6.335   4.461  0.3263  0.6089 -0.7459
12729SOL     OW41710   9.854   8.657   3.996 -0.4684  0.2761 -0.2385
12729SOL    HW141711   9.838   8.654   4.094  2.0718 -2.2144  0.1570
12729SOL    HW241712   9.877   8.750   3.968 -2.1527  1.1850  1.3255
12730SOL     OW41713   1.529   9.738   0.767 -0.5836 -0.5530 -0.3159
12730SOL    HW141714   1.547   9.833   0.792  1.8890 -0.7383 -1.2647
12730SOL    HW241715   1.513   9.685   0.850 -2.5783  0.7808  0.1835
12732SOL     OW41716   8.291   8.452   3.561  0.2049  0.0667 -0.2893
12732SOL    HW141717   8.242   8.395   3.626  0.1909  1.2033  0.7222
12732SOL    HW241718   8.226   8.508   3.510  0.1668 -1.3051 -1.7664
12733SOL     OW41719   4.579   7.710   2.756 -0.3003 -0.7268 -0.2339
12733SOL    HW141720   4.621   7.754   2.836 -0.9276  2.6542 -1.6454
12733SOL    HW241721   4.486   7.681   2.778  0.2047 -1.5638  0.8066
12734SOL     OW41722   8.802   8.952   4.148  0.5417  0.2514 -0.8447
12734SOL    HW141723   8.702   8.951   4.141  0.5179  0.2706 -0.5109
12734SOL    HW241724   8.835   8.858   4.162  0.3475  0.5722  2.0526
12735SOL     OW41725   6.425   1.395   2.887 -0.5009 -0.4099  0.2045
12735SOL    HW141726   6.425   1.474   2.826 -2.8270  1.1610  2.1738
12735SOL    HW241727   6.339   1.345   2.878 -0.8412 -0.2077  2.1086
12736SOL     OW41728   9.566   3.187   2.284  0.1272 -0.0420  0.1512
12736SOL    HW141729   9.510   3.148   2.357  1.4052  0.1008  1.2236
12736SOL    HW241730   9.634   3.119   2.254  1.6630  0.9453  1.2907
12737SOL     OW41731   2.449   6.039   2.541 -0.1785  0.4227 -0.2353
12737SOL    HW141732   2.487   6.087   2.621 -0.6035  2.1739 -1.0552
12737SOL    HW241733   2.415   6.106   2.476 -0.9398 -1.0361 -1.3571
12738SOL     OW41734   8.396   3.946   1.296 -0.9340 -0.0036  0.3587
12738SOL    HW141735   8.410   3.871   1.231  3.2055  0.2236  0.8877
12738SOL    HW241736   8.429   3.920   1.386  0.5177  2.4194  0.5707
12739SOL     OW41737   9.488   2.627   1.446 -0.3700  0.0716 -0.6096
12739SOL    HW141738   9.576   2.666   1.418  0.3074 -0.5317  0.6287
12739SOL    HW241739   9.488   2.611   1.545 -1.3255 -1.3098 -0.8093
12740SOL     OW41740   9.122   8.747   1.086 -0.3469  0.2510 -0.0843
12740SOL    HW141741   9.191   8.764   1.157 -2.7813  0.6205  2.2665
12740SOL    HW241742   9.037   8.795   1.110 -1.7338 -0.9501 -2.4385
12741SOL     OW41743   6.648   9.645   2.855  0.5654  0.2576  0.0340
12741SOL    HW141744   6.644   9.737   2.893  0.9719  0.3257 -0.0875
12741SOL    HW241745   6.725   9.595   2.897  0.7102  0.1698 -0.3343
12742SOL     OW41746   5.574   1.570   2.694 -0.5533 -0.2427  0.2227
12742SOL    HW141747   5.601   1.474   2.685  0.1561 -0.1017  0.7844
12742SOL    HW241748   5.549   1.590   2.789 -1.0189  0.0442  0.0409
12743SOL     OW41749   9.781   4.548   3.509  0.1224 -0.0478  0.3963
12743SOL    HW141750   9.874   4.582   3.499  0.2902 -0.0417  1.8691
12743SOL    HW241751   9.777   4.452   3.480  0.6214 -0.0958  0.4914
12744SOL     OW41752   0.685   8.768   4.415  0.1940  0.1467  0.4163
12744SOL    HW141753   0.650   8.819   4.493 -0.3264 -0.3510  0.5092
12744SOL    HW241754   0.618   8.698   4.388  0.5112  0.1028 -0.2659
12745SOL     OW41755   0.493   3.031   3.596  0.0032  0.1688  0.4158
12745SOL    HW141756   0.471   3.124   3.624  0.5171  0.0976  1.0602
12745SOL    HW241757   0.482   2.969   3.674 -0.2478 -0.2953  0.0147
12746SOL     OW41758   9.145   5.762   1.457 -0.2333  0.6039 -0.4816
12746SOL    HW141759   9.187   5.851   1.478 -0.3817  0.6431 -0.3468
12746SOL    HW241760   9.205   5.689   1.489 -0.3791  0.6626 -0.0685
12747SOL     OW41761   5.741   0.880   0.988 -0.1181 -0.1808 -0.0622
12747SOL    HW141762   5.682   0.933   1.049 -0.6681  0.5780 -1.2284
12747SOL    HW241763   5.763   0.792   1.030 -0.5361  0.3062  1.1913
12748SOL     OW41764   1.784   3.715   3.943 -0.1384 -0.2945  0.1330
12748SOL    HW141765   1.735   3.740   4.026 -0.9898  2.2250 -1.0821
12748SOL    HW241766   1.723   3.664   3.882  0.0016 -0.7595  0.3839
12749SOL     OW41767   3.562   5.654   4.076  0.4078 -0.5400 -0.0606
12749SOL    HW141768   3.539   5.707   3.994  0.4683 -1.2815 -0.5693
12749SOL    HW241769   3.502   5.680   4.151  2.0198  1.9783  0.4047
12750SOL     OW41770   4.157   4.710   2.238 -0.1532 -0.1910  0.2091
12750SOL    HW141771   4.184   4.617   2.261 -0.1236 -0.4866 -0.9728
12750SOL    HW241772   4.210   4.742   2.159 -0.6002  0.5915  0.2172
12752SOL     OW41773   0.022   5.647   2.095  0.2031 -0.6152  0.2729
12752SOL    HW141774  -0.045   5.673   2.025  1.3096 -2.5325 -1.5371
12752SOL    HW241775   0.104   5.704   2.085  0.2543 -0.7037  0.1899
12754SOL     OW41776   1.319   5.475   2.660  0.3044  0.3672 -0.3573
12754SOL    HW141777   1.251   5.462   2.589 -0.5730 -0.5057  0.6244
12754SOL    HW241778   1.305   5.408   2.733  3.0732 -0.7652 -0.7906
12755SOL     OW41779   5.565   1.428   2.160 -0.1564  0.5913  0.4212
12755SOL    HW141780   5.472   1.396   2.144 -0.6738  2.0212  0.4924
12755SOL    HW241781   5.617   1.423   2.074 -0.0946 -0.8306  0.5345
12756SOL     OW41782   2.513   3.458   3.732  0.9028  0.3672 -0.4571
12756SOL    HW141783   2.504   3.539   3.790  0.2733  0.0769 -0.1444
12756SOL    HW241784   2.423   3.415   3.721  1.2905 -0.4675 -0.3611
12757SOL     OW41785   3.269   7.769   2.339  0.1171 -0.3989 -0.5084
12757SOL    HW141786   3.228   7.678   2.348 -2.6578  0.8953  0.2520
12757SOL    HW241787   3.199   7.836   2.315  1.5217  2.1070  2.0251
12758SOL     OW41788   8.748   0.272   0.162  0.2141 -0.2334  0.2448
12758SOL    HW141789   8.696   0.187   0.169  0.8506 -0.5852  0.7790
12758SOL    HW241790   8.746   0.305   0.068  0.0766 -0.9190  0.0061
12759SOL     OW41791   3.290   4.264   3.943  0.1646  0.1379 -0.5904
12759SOL    HW141792   3.248   4.220   3.863 -1.3408  0.0974  0.2081
12759SOL    HW241793   3.276   4.207   4.024  0.2259  0.9859  0.0265
12760SOL     OW41794   8.350   6.069   3.262  0.2568  0.3446  0.5567
12760SOL    HW141795   8.268   6.125   3.253 -0.3119 -0.4144  0.9382
12760SOL    HW241796   8.407   6.079   3.180  0.3243  1.7176  0.7538
12761SOL     OW41797   1.061   2.988   2.095  0.0419  0.5772 -0.5331
12761SOL    HW141798   0.998   2.913   2.115  0.3069  0.2351 -0.9744
12761SOL    HW241799   1.109   3.014   2.179  0.1206  0.0950 -0.4259
12762SOL     OW41800   2.064   1.243   2.727 -0.5335 -0.0719 -0.4036
12762SOL    HW141801   2.133   1.173   2.747  1.1823  1.3337 -1.2586
12762SOL    HW241802   2.017   1.221   2.642 -0.2883 -0.3997 -0.4538
12763SOL     OW41803   3.271   1.763   3.321 -0.3883  0.5455  0.7650
12763SOL    HW141804   3.303   1.840   3.266 -0.3135 -0.5778 -0.7764
12763SOL    HW241805   3.191   1.792   3.375 -1.1895  1.3342 -0.8012
12764SOL     OW41806   1.813   5.916   1.329  0.4201  0.2695 -0.1506
12764SOL    HW141807   1.765   5.892   1.244  1.6497 -0.1859 -0.7177
12764SOL    HW241808   1.777   5.859   1.403 -1.1660  1.1685 -0.1955
12765SOL     OW41809   9.017   2.338   1.816  0.3048  0.2555 -0.5517
12765SOL    HW141810   9.099   2.329   1.760  0.0730  1.4563 -1.1059
12765SOL    HW241811   8.937   2.312   1.763  0.2540 -0.2334 -0.2371
12766SOL     OW41812   9.961   4.974   0.943 -0.0684 -0.5378 -0.3765
12766SOL    HW141813   9.903   4.905   0.987  1.1009 -1.2299  0.0908
12766SOL    HW241814   9.999   4.936   0.858 -1.4014  0.3987 -1.4236
12767SOL     OW41815   2.562   3.803   4.288  0.2439 -0.2726 -0.2626
12767SOL    HW141816   2.649   3.819   4.241 -0.3005  1.3178 -0.7670
12767SOL    HW241817   2.550   3.705   4.304  1.8758 -0.5465 -0.6736
12768SOL     OW41818   0.203   5.405   2.601  0.1524 -0.3313 -0.5224
12768SOL    HW141819   0.236   5.491   2.563 -1.3183  0.8348  0.7649
12768SOL    HW241820   0.250   5.386   2.687 -1.2061  0.4496  0.4261
12769SOL     OW41821   1.215   6.909   0.873  0.1899  0.1941 -0.0999
12769SOL    HW141822   1.147   6.935   0.804  1.3203  2.3166 -0.4506
12769SOL    HW241823   1.301   6.887   0.828  0.6624  0.6932  0.5558
12771SOL     OW41824   0.637   9.778   1.637  0.4102 -0.2382 -0.1070
12771SOL    HW141825   0.608   9.865   1.676  0.8413 -0.1475  0.0104
12771SOL    HW241826   0.733   9.783   1.610 -0.3866  0.3927 -3.1054
12772SOL     OW41827   1.322   9.420   3.924 -0.3862  0.1994 -0.3502
12772SOL    HW141828   1.390   9.413   3.997  0.7922 -3.7891 -1.7212
12772SOL    HW241829   1.367   9.427   3.836 -1.7970  0.4189 -1.0764
12773SOL     OW41830   2.157   8.976   3.998  0.2601 -0.2486 -0.4125
12773SOL    HW141831   2.249   8.969   3.960 -0.3745  1.2796 -2.2956
12773SOL    HW241832   2.130   8.887   4.036  2.6335 -0.6065  0.5191
12774SOL     OW41833   6.701   8.715   4.377 -0.3903 -0.3495  0.4447
12774SOL    HW141834   6.601   8.720   4.381 -0.4002  1.1191 -0.8720
12774SOL    HW241835   6.738   8.806   4.356  1.1592 -1.0927 -0.1248
12776SOL     OW41836   8.690   5.500   2.376  0.0994 -0.6848 -0.1353
12776SOL    HW141837   8.686   5.524   2.279  1.2092  0.9191  0.2028
12776SOL    HW241838   8.698   5.400   2.385  0.5410 -0.8034 -1.6960
12777SOL     OW41839   3.735   8.866   2.068 -0.2066  0.4387  0.0431
12777SOL    HW141840   3.835   8.866   2.063 -0.2601  0.1024 -1.1673
12777SOL    HW241841   3.702   8.771   2.073 -0.4376  0.5687  1.2224
12778SOL     OW41842   4.332   6.854   1.380 -0.2783  0.1484 -0.2436
12778SOL    HW141843   4.238   6.855   1.416 -0.0565  0.6879  0.3298
12778SOL    HW241844   4.336   6.794   1.300 -0.8598 -0.7845  0.4145
12779SOL     OW41845   0.060   6.497   3.335 -0.3334  0.7501  0.2939
12779SOL    HW141846   0.088   6.587   3.303 -0.9571  0.8607  0.0453
12779SOL    HW241847   0.022   6.445   3.259 -0.6066  0.5295  0.5803
12780SOL     OW41848   0.570   4.640   3.826 -0.2610  0.5801 -0.4981
12780SOL    HW141849   0.558   4.617   3.923  1.1660  1.3292 -0.1379
12780SOL    HW241850   0.581   4.556   3.773 -3.2218  0.0203 -0.3523
12781SOL     OW41851   9.979   0.161   2.036 -0.1007  0.2421  0.3545
12781SOL    HW141852  10.048   0.116   1.980 -1.6514 -1.3592 -0.3402
12781SOL    HW241853   9.931   0.230   1.981  0.1183  0.4854  0.4694
12782SOL     OW41854   1.887   2.913   1.302 -0.4850  0.9682 -0.7345
12782SOL    HW141855   1.873   2.982   1.372 -2.5818  0.1813 -0.3370
12782SOL    HW241856   1.983   2.888   1.297 -0.1193  2.0526  0.8853
12783SOL     OW41857   3.367   2.325   4.240 -0.4152  0.0663  0.4883
12783SOL    HW141858   3.291   2.266   4.267 -3.1215  2.2269 -2.0415
12783SOL    HW241859   3.419   2.281   4.167 -0.3308 -0.6915  1.0097
12784SOL     OW41860   0.912   0.016   3.909  0.0562 -0.4495  0.2879
12784SOL    HW141861   0.908  -0.084   3.907 -0.3826 -0.4180 -0.4718
12784SOL    HW241862   0.965   0.045   3.988 -0.5147 -1.2701  0.9885
12787SOL     OW41863   9.199   6.199   1.757  0.7238 -0.0849  0.3717
12787SOL    HW141864   9.120   6.146   1.724  1.0796 -0.4844  0.1632
12787SOL    HW241865   9.246   6.242   1.680  2.0340 -1.6857  0.2520
12788SOL     OW41866   4.366   2.832   1.228 -0.0675  0.0920 -0.1473
12788SOL    HW141867   4.426   2.831   1.148 -1.0698 -1.6169 -0.9222
12788SOL    HW241868   4.406   2.887   1.300  0.3304  2.6413 -2.2383
12789SOL     OW41869   0.886   7.051   3.240 -0.1897 -0.4282  0.1032
12789SOL    HW141870   0.915   7.146   3.255 -0.8056 -0.3452  0.7953
12789SOL    HW241871   0.789   7.049   3.220 -0.1609 -0.9076  0.0168
12791SOL     OW41872   4.631   0.725   3.630  0.1965 -0.3186  0.3488
12791SOL    HW141873   4.550   0.670   3.648  0.4315 -0.6343  0.4591
12791SOL    HW241874   4.696   0.672   3.575 -0.3311  0.4830 -1.0648
12792SOL     OW41875   3.099   0.971   2.973 -0.1469  0.3556 -0.0096
12792SOL    HW141876   3.169   1.032   3.010  0.0643  0.8635 -1.2290
12792SOL    HW241877   3.140   0.914   2.901 -0.6641 -0.2944  0.2065
12794SOL     OW41878   2.349   5.255   1.608  0.3569 -0.4513  0.7498
12794SOL    HW141879   2.374   5.205   1.691 -0.7715  0.7388  1.8346
12794SOL    HW241880   2.415   5.235   1.536  1.8372 -0.8570  2.1899
12796SOL     OW41881   0.009   3.936   1.494 -0.3282 -0.0914 -0.1928
12796SOL    HW141882  -0.061   3.886   1.443 -0.1354 -0.6913  0.1268
12796SOL    HW241883   0.094   3.883   1.495  0.1813  0.6954 -0.7032
12797SOL     OW41884   7.680   9.914   3.327  0.8510 -0.4531 -0.1444
12797SOL    HW141885   7.762   9.939   3.379  0.7741 -0.2353 -0.1260
12797SOL    HW241886   7.670   9.977   3.249 -0.5398  0.9675  1.1366
12798SOL     OW41887   8.846   5.687   1.939  0.2545  0.0101  0.2747
12798SOL    HW141888   8.846   5.741   2.024 -0.9016  0.8093 -0.2214
12798SOL    HW241889   8.860   5.591   1.962 -1.8583 -0.0274  1.5676
12799SOL     OW41890   7.595   9.584   4.373  0.3933  0.2142 -0.4313
12799SOL    HW141891   7.683   9.565   4.328 -0.5179 -1.4134 -1.5746
12799SOL    HW241892   7.599   9.673   4.418  1.3571  1.8991 -3.7147
12800SOL     OW41893   6.692   9.471   3.738 -0.4152  0.0783  0.2031
12800SOL    HW141894   6.600   9.467   3.778 -0.6618  0.6378 -0.2981
12800SOL    HW241895   6.687   9.447   3.641 -0.5491  3.2874 -0.6391
12801SOL     OW41896   4.533   4.295   0.140  0.1009 -0.0057 -0.4563
12801SOL    HW141897   4.561   4.387   0.112 -1.6691  0.2606 -1.3938
12801SOL    HW241898   4.614   4.243   0.169  0.8639  2.5290  2.2171
12802SOL     OW41899   9.489   4.701   4.006  0.2918 -0.2612 -0.3799
12802SOL    HW141900   9.416   4.725   4.071 -0.3560 -0.6081 -0.9776
12802SOL    HW241901   9.573   4.684   4.057 -0.0021  0.2793  0.3063
12803SOL     OW41902   0.955   2.704   1.938 -0.6567 -0.0869  0.2289
12803SOL    HW141903   1.054   2.708   1.923 -0.9967  0.1497 -2.1279
12803SOL    HW241904   0.929   2.610   1.961  0.2162  0.0335  1.8257
12804SOL     OW41905   8.601   7.224   1.489  0.2110 -0.1374 -0.4863
12804SOL    HW141906   8.568   7.283   1.562 -0.9097  0.2296 -1.2809
12804SOL    HW241907   8.562   7.133   1.500 -0.6047  0.1337 -1.0779
12805SOL     OW41908   4.180   5.649   2.129 -0.0216  0.4051  0.0995
12805SOL    HW141909   4.187   5.557   2.168 -1.8144  0.3355  0.2577
12805SOL    HW241910   4.156   5.642   2.032  0.5536  0.6976 -0.0684
12807SOL     OW41911   4.106   8.070   1.820 -0.0005 -0.2777  0.3118
12807SOL    HW141912   4.050   8.015   1.883 -0.3941  1.2518  1.3275
12807SOL    HW241913   4.203   8.049   1.835  0.0888  1.7969  3.2007
12808SOL     OW41914   1.434   4.990   2.244 -0.0749 -0.2465  0.0604
12808SOL    HW141915   1.457   5.086   2.255  0.0315  0.0729 -2.8088
12808SOL    HW241916   1.381   4.959   2.323 -0.6206  2.3036  0.7107
12809SOL     OW41917   4.973   8.821   0.062  0.0770  0.5631  0.0226
12809SOL    HW141918   5.029   8.776   0.131 -2.3360 -1.5499  0.6638
12809SOL    HW241919   4.915   8.890   0.105  0.4604  1.0962 -0.2999
12810SOL     OW41920   2.302   1.069   4.392 -0.4732  0.2601  0.1610
12810SOL    HW141921   2.254   1.156   4.384  0.0440  0.4928 -0.4110
12810SOL    HW241922   2.265   1.018   4.470  0.8265  2.0028  1.9653
12811SOL     OW41923   0.163   7.371   4.011 -0.9620  0.3060  0.1373
12811SOL    HW141924   0.200   7.321   4.089 -0.8562 -0.2531 -0.2673
12811SOL    HW241925   0.131   7.461   4.041 -0.9677  0.0749  0.8302
12812SOL     OW41926   4.318   1.462   3.259  0.1910  0.0720 -0.2973
12812SOL    HW141927   4.389   1.400   3.294 -0.4474  0.1188  1.0959
12812SOL    HW241928   4.247   1.408   3.213  0.1887 -0.1302 -0.0572
12813SOL     OW41929   9.360   3.323   0.688  0.5674 -0.3438 -0.3547
12813SOL    HW141930   9.276   3.298   0.734  1.0707 -0.1770  0.6633
12813SOL    HW241931   9.372   3.422   0.691  0.8149 -0.3691 -0.4688
12815SOL     OW41932   9.222   2.212   0.134 -0.1982  0.0347 -0.3925
12815SOL    HW141933   9.169   2.198   0.050  1.4803  0.6135 -1.5685
12815SOL    HW241934   9.320   2.212   0.112  0.1948  3.5314  0.9939
12816SOL     OW41935   8.152   0.367   2.225  0.3615  0.3148 -0.2095
12816SOL    HW141936   8.172   0.393   2.319  0.2507  2.6262 -0.8043
12816SOL    HW241937   8.214   0.293   2.198  0.6581 -0.1064  1.5424
12818SOL     OW41938   8.071   4.602   0.426  0.1795 -0.0135 -0.1166
12818SOL    HW141939   8.069   4.520   0.369 -0.1626  0.3932 -0.7069
12818SOL    HW241940   8.120   4.675   0.377 -2.4009  1.1601 -1.0638
12819SOL     OW41941   3.022   7.545   1.390  0.0262 -0.1627 -0.0485
12819SOL    HW141942   3.042   7.516   1.297  2.7325  1.0345  0.1253
12819SOL    HW241943   3.017   7.466   1.450  2.6042 -0.6399 -0.4294
12820SOL     OW41944   1.427   8.966   1.856 -0.0683  0.3693 -1.0110
12820SOL    HW141945   1.450   9.061   1.880  0.3108 -0.5494  2.4082
12820SOL    HW241946   1.488   8.935   1.783  1.7165  1.8251 -0.1894
12821SOL     OW41947   5.060   6.647   2.135  0.3512  0.0701 -0.3577
12821SOL    HW141948   5.074   6.693   2.223 -1.8419 -2.2299  1.2548
12821SOL    HW241949   4.975   6.678   2.094  0.1852 -0.6013 -0.5233
12822SOL     OW41950   3.572   4.189   2.112  0.4283 -0.1441  0.0746
12822SOL    HW141951   3.575   4.134   2.196 -1.9910 -0.2105  0.1772
12822SOL    HW241952   3.487   4.242   2.111  0.5698  0.0723 -2.2012
12823SOL     OW41953   2.492   1.808   3.567  0.5191 -0.1999 -0.2999
12823SOL    HW141954   2.519   1.761   3.652 -0.4161  0.8854  0.6254
12823SOL    HW241955   2.434   1.747   3.513 -1.9105  0.3341  1.5851
12824SOL     OW41956   0.137   7.882   0.956 -0.5077 -0.4809 -0.0173
12824SOL    HW141957   0.097   7.928   0.876 -1.1778 -2.5051 -0.8758
12824SOL    HW241958   0.161   7.951   1.025 -0.4195  1.2548 -1.7282
12825SOL     OW41959   8.738   0.580   4.191 -0.4570  0.0671  0.2674
12825SOL    HW141960   8.752   0.585   4.092  0.1749 -0.7803  0.3107
12825SOL    HW241961   8.641   0.594   4.212 -0.9127 -1.5797 -0.6185
12826SOL     OW41962   9.719   6.649   3.221  0.0151 -0.0245  0.5101
12826SOL    HW141963   9.679   6.676   3.309 -0.4384 -0.7075  0.5188
12826SOL    HW241964   9.665   6.575   3.181  1.3953 -1.0869  0.5954
12827SOL     OW41965   9.185   4.232   0.098 -0.0831  0.4250  0.0348
12827SOL    HW141966   9.192   4.133   0.085 -0.8771  0.2570  0.8714
12827SOL    HW241967   9.241   4.259   0.176  0.1515  0.6430 -0.2076
12828SOL     OW41968   2.286   1.033   1.511  0.0680 -0.0774 -0.3201
12828SOL    HW141969   2.317   0.986   1.428  0.1432  0.5569 -0.6560
12828SOL    HW241970   2.341   1.004   1.589 -1.4474 -2.3664 -0.0637
12829SOL     OW41971   3.255   4.681   0.595 -0.2793 -0.0107  0.3930
12829SOL    HW141972   3.206   4.712   0.676 -0.1113  0.5548  0.2837
12829SOL    HW241973   3.191   4.669   0.519 -0.2133  1.0179  0.1659
12830SOL     OW41974   2.305   5.478   4.376 -0.2211  0.3274 -0.0718
12830SOL    HW141975   2.240   5.403   4.386  0.1668  0.0486  0.3923
12830SOL    HW241976   2.262   5.554   4.328 -0.1129 -0.8405 -2.1138
12832SOL     OW41977   7.104   1.030   4.307  0.0027 -0.6184 -0.2682
12832SOL    HW141978   7.093   1.050   4.210  2.1005  0.7249 -0.2603
12832SOL    HW241979   7.063   0.941   4.327  0.0297 -1.1761 -2.4960
12834SOL     OW41980   4.304   1.152   0.572 -0.1380 -0.1196 -0.7700
12834SOL    HW141981   4.404   1.155   0.574 -0.1499  2.2075 -1.7826
12834SOL    HW241982   4.273   1.134   0.479 -0.6835 -0.0470 -0.6041
12836SOL     OW41983   6.089   0.710   2.900 -0.0271  0.4399 -0.1789
12836SOL    HW141984   6.055   0.794   2.858  0.2583  0.3971 -0.5045
12836SOL    HW241985   6.068   0.710   2.998 -0.6987  0.5426 -0.3214
12838SOL     OW41986   3.913   3.693   2.485 -0.3246 -0.0063 -0.0446
12838SOL    HW141987   3.913   3.617   2.550 -1.4213 -0.2664 -0.3335
12838SOL    HW241988   3.879   3.776   2.531  1.3901  0.4572  0.4212
12839SOL     OW41989   1.804   9.094   0.356  0.4507 -0.1686  0.2122
12839SOL    HW141990   1.758   9.021   0.304 -0.4535  1.4186 -1.2740
12839SOL    HW241991   1.821   9.063   0.449 -1.3236 -1.7214  0.0408
12840SOL     OW41992   7.457   8.591   2.309 -0.4785  0.3252  0.8573
12840SOL    HW141993   7.390   8.619   2.378  0.5208  1.7874  1.2485
12840SOL    HW241994   7.538   8.553   2.354 -1.1153 -1.6894  0.3766
12841SOL     OW41995   4.173   0.282   0.846  0.6990 -0.3741 -0.0803
12841SOL    HW141996   4.213   0.367   0.812  1.2203 -0.2227  0.8971
12841SOL    HW241997   4.095   0.303   0.905 -0.3726 -0.6451 -1.3790
12843SOL     OW41998   9.217   3.025   4.331 -0.2728  0.2434  0.6763
12843SOL    HW141999   9.190   2.993   4.239 -1.2044  2.3461  0.1855
12843SOL    HW242000   9.316   3.034   4.335 -0.1413 -0.8923  0.2256
12844SOL     OW42001   8.802   1.730   1.625 -0.8360  0.9198  0.2792
12844SOL    HW142002   8.863   1.779   1.687 -0.7856  0.3976  0.6519
12844SOL    HW242003   8.743   1.795   1.577 -0.9004  1.3209  0.9024
12845SOL     OW42004   2.324   8.471   3.137 -0.6125  0.0710 -0.4083
12845SOL    HW142005   2.314   8.557   3.088  0.4859  0.7471  0.5224
12845SOL    HW242006   2.235   8.443   3.175 -1.0380  0.5973 -1.0126
12846SOL     OW42007   1.803   5.416   0.940  0.2981 -0.2704 -0.8982
12846SOL    HW142008   1.894   5.390   0.973  1.1124  2.1755 -1.1238
12846SOL    HW242009   1.741   5.426   1.018  1.0332  1.0555 -0.4663
12847SOL     OW42010   4.674   2.872   0.740  0.6077  0.2298  0.0991
12847SOL    HW142011   4.714   2.781   0.726  0.1934 -0.2847  2.0108
12847SOL    HW242012   4.610   2.892   0.666  1.0497 -0.8477 -0.5892
12848SOL     OW42013   4.537   8.938   1.154 -0.3116 -0.3629  0.7123
12848SOL    HW142014   4.610   8.979   1.099 -0.1813 -2.7464 -0.9575
12848SOL    HW242015   4.575   8.863   1.208 -1.6252 -2.0669 -0.6767
12850SOL     OW42016   0.482   2.376   3.175  0.3015  0.0952  0.3692
12850SOL    HW142017   0.510   2.281   3.156 -2.4257 -0.3891 -1.4768
12850SOL    HW242018   0.457   2.385   3.271  0.8057 -0.9880  0.6100
12851SOL     OW42019   8.499   8.405   1.586 -0.4263 -0.1111  0.8963
12851SOL    HW142020   8.547   8.342   1.648 -0.3060 -0.6857  0.2254
12851SOL    HW242021   8.509   8.372   1.492 -4.0772 -1.5135  0.9255
12852SOL     OW42022   2.741   5.351   0.255 -0.3594 -0.3320  0.2641
12852SOL    HW142023   2.693   5.426   0.209  0.0291  0.3000  0.8860
12852SOL    HW242024   2.817   5.321   0.197 -1.8554 -1.7666 -1.0235
12853SOL     OW42025   0.241   3.062   3.890  0.0103 -0.4265  0.3204
12853SOL    HW142026   0.307   2.990   3.867  1.6306  1.2945 -0.6580
12853SOL    HW242027   0.157   3.021   3.924  0.2532 -2.8503 -1.8021
12854SOL     OW42028   6.913   9.335   3.498  0.1865  0.0139 -0.1679
12854SOL    HW142029   6.989   9.354   3.435  0.9872  0.0800  0.8075
12854SOL    HW242030   6.934   9.252   3.551 -1.4718 -1.3358 -1.5394
12856SOL     OW42031   2.366   6.627   4.053  0.3366  0.1523 -0.4484
12856SOL    HW142032   2.303   6.696   4.017  1.3003  1.2654 -0.0066
12856SOL    HW242033   2.336   6.599   4.144  0.5213  0.7364 -0.2061
12858SOL     OW42034   8.201   0.302   2.640 -0.0559  0.0219 -0.4797
12858SOL    HW142035   8.146   0.218   2.643  0.7966 -0.5486 -0.5884
12858SOL    HW242036   8.145   0.379   2.670 -1.2627 -0.3540 -1.6975
12859SOL     OW42037   3.831   9.600   0.256 -0.0157 -0.2806 -0.0419
12859SOL    HW142038   3.894   9.545   0.202 -2.5227 -1.7668 -1.5260
12859SOL    HW242039   3.767   9.648   0.196 -1.9190 -0.7863  1.5205
12860SOL     OW42040   6.097   7.818   2.034 -0.7094  0.5511  0.3317
12860SOL    HW142041   6.134   7.803   2.126 -1.0699 -0.2177  0.3548
12860SOL    HW242042   6.128   7.744   1.974  0.8518  1.8930 -0.5676
12861SOL     OW42043   5.951   7.651   3.687  0.5746  0.5549  0.2027
12861SOL    HW142044   6.011   7.690   3.757  0.5098  1.9137 -0.4858
12861SOL    HW242045   5.912   7.724   3.631  2.6214 -0.5862 -2.8845
12862SOL     OW42046   1.006   7.144   1.552 -0.1750 -0.3466  0.7232
12862SOL    HW142047   1.051   7.161   1.464  1.0458 -1.2640  1.1450
12862SOL    HW242048   0.957   7.226   1.581 -0.6277 -0.0430 -0.8310
12863SOL     OW42049   8.475   8.441   2.343  0.4508 -0.6089 -0.7758
12863SOL    HW142050   8.469   8.471   2.248 -0.0645 -1.6244 -1.0835
12863SOL    HW242051   8.544   8.369   2.351  1.0758  0.0540 -0.2252
12864SOL     OW42052   5.149   2.605   0.759 -0.5449 -0.0487 -0.4403
12864SOL    HW142053   5.219   2.647   0.701 -2.4852  0.1988 -2.6652
12864SOL    HW242054   5.110   2.526   0.711 -1.7925 -0.1880  0.7819
12866SOL     OW42055   3.020   1.165   0.692 -0.0738 -0.4447  0.2245
12866SOL    HW142056   3.003   1.089   0.755 -1.3814  0.6132  1.1668
12866SOL    HW242057   2.958   1.241   0.713  1.1139  0.8348 -0.8003
12867SOL     OW42058   0.988   3.253   0.526 -0.8841 -0.4712  0.5271
12867SOL    HW142059   0.965   3.317   0.452  1.0202 -2.7047 -2.0930
12867SOL    HW242060   0.916   3.184   0.533  0.3836 -2.0876 -1.4697
12868SOL     OW42061   7.698   9.578   2.318 -0.4859 -0.1901 -0.1778
12868SOL    HW142062   7.794   9.586   2.289 -0.1979  0.0898  0.8432
12868SOL    HW242063   7.694   9.530   2.405 -1.1592  1.0404  0.4805
12869SOL     OW42064   8.267   0.185   0.924  0.4392  0.1856  0.1956
12869SOL    HW142065   8.367   0.191   0.917  0.4618 -0.2577  0.1193
12869SOL    HW242066   8.242   0.110   0.985  0.1315 -1.6805 -2.1141
12870SOL     OW42067   7.533   3.669   1.261  0.4567  0.3530 -0.2666
12870SOL    HW142068   7.559   3.641   1.354  0.3705  0.2236 -0.2815
12870SOL    HW242069   7.438   3.700   1.261  0.5449  0.6277 -0.2541
12871SOL     OW42070   3.261   1.465   1.110 -0.2747  0.7963 -0.8218
12871SOL    HW142071   3.253   1.516   1.196  0.8001  0.0338 -0.2634
12871SOL    HW242072   3.194   1.391   1.108  1.6956 -1.1056  0.7251
12872SOL     OW42073   7.903   5.479   4.265  0.2425  0.0980 -0.2251
12872SOL    HW142074   7.847   5.554   4.298 -0.6534 -0.8975  0.5727
12872SOL    HW242075   7.957   5.442   4.341 -0.2057 -0.8141 -0.3411
12874SOL     OW42076   7.835   8.973   0.481  0.0825 -0.4349 -0.0809
12874SOL    HW142077   7.785   9.010   0.402  0.5156 -0.8048 -0.5321
12874SOL    HW242078   7.772   8.965   0.559 -0.3336 -0.0068 -0.3682
12876SOL     OW42079   1.625   4.570   0.352  0.4313 -0.3136  0.6239
12876SOL    HW142080   1.537   4.608   0.323  0.0621 -2.1374 -0.8082
12876SOL    HW242081   1.612   4.475   0.381  2.2047 -1.2955 -1.5760
12877SOL     OW42082   2.801   2.216   1.568  0.1867 -0.2674  0.0708
12877SOL    HW142083   2.901   2.226   1.569  0.3040 -1.3953  1.4713
12877SOL    HW242084   2.766   2.218   1.662 -1.0803 -0.1417 -0.3939
12878SOL     OW42085   2.049   9.165   3.834  0.2070  0.4977 -0.2471
12878SOL    HW142086   2.067   9.244   3.892 -0.0191 -0.6163  1.3476
12878SOL    HW242087   2.084   9.082   3.877 -0.1967 -0.3918 -1.5736
12879SOL     OW42088   0.166   9.369   3.438 -0.0049 -0.2326 -1.0934
12879SOL    HW142089   0.144   9.302   3.509 -1.4175 -0.6698 -1.9384
12879SOL    HW242090   0.200   9.452   3.482  1.9547 -1.5279 -0.0397
12880SOL     OW42091   6.082   6.372   3.566 -0.4137 -0.2496  0.5738
12880SOL    HW142092   5.983   6.363   3.577 -0.3919 -0.5926  0.4959
12880SOL    HW242093   6.122   6.283   3.546  0.1821 -0.4653  2.6633
12881SOL     OW42094   9.530   6.482   1.632 -0.2127 -0.3609  0.2525
12881SOL    HW142095   9.618   6.522   1.607 -1.4203  0.9263 -2.1302
12881SOL    HW242096   9.520   6.483   1.731  1.4555  1.6992  0.4403
12884SOL     OW42097   8.797   7.139   0.723 -0.4770 -0.0511 -0.0342
12884SOL    HW142098   8.745   7.054   0.715 -1.0689  0.3187 -0.1438
12884SOL    HW242099   8.895   7.119   0.718 -0.6094 -0.7399  0.0753
12885SOL     OW42100   6.165   8.793   2.757 -0.1431 -0.0710 -0.3634
12885SOL    HW142101   6.076   8.794   2.712 -0.2321  2.1014 -0.1798
12885SOL    HW242102   6.221   8.721   2.718 -1.0263  0.2797 -2.3292
12886SOL     OW42103   9.421   9.849   4.124 -0.1933  0.3447  0.0764
12886SOL    HW142104   9.414   9.877   4.028 -0.6740  0.2849  0.0922
12886SOL    HW242105   9.504   9.795   4.137 -0.4495 -0.1775 -0.4389
12887SOL     OW42106   4.998   8.120   1.347 -0.3064  0.1720  0.2163
12887SOL    HW142107   4.968   8.056   1.276 -0.3909  0.1387  0.2813
12887SOL    HW242108   5.020   8.070   1.430 -0.1486  0.2040  0.1935
12889SOL     OW42109   4.194   7.591   1.472  0.7758 -0.8137  0.3747
12889SOL    HW142110   4.273   7.596   1.411  0.1868 -3.1536 -0.6270
12889SOL    HW242111   4.139   7.511   1.448 -2.5855  1.4456  0.2118
12891SOL     OW42112   4.060   2.891   4.304  0.1211  0.0035  0.6318
12891SOL    HW142113   3.983   2.827   4.305  0.5437 -0.5031  1.5890
12891SOL    HW242114   4.116   2.876   4.385  0.7877  0.9104  0.3409
12892SOL     OW42115   1.777   3.766   2.187 -0.1927 -0.2788  0.3732
12892SOL    HW142116   1.810   3.676   2.217 -0.1141 -0.6196 -0.6865
12892SOL    HW242117   1.732   3.756   2.098 -2.8256  0.2136  1.5768
12893SOL     OW42118   3.089   2.130   2.122 -0.4638  0.3342 -0.5030
12893SOL    HW142119   3.094   2.053   2.059  2.7332  0.4569 -0.5040
12893SOL    HW242120   3.116   2.214   2.074 -3.4550  1.4139 -0.3830
12894SOL     OW42121   3.204   2.749   1.889 -0.3021 -0.2565  0.0170
12894SOL    HW142122   3.131   2.798   1.842  0.6959  0.9451 -0.3145
12894SOL    HW242123   3.165   2.690   1.960 -1.5727  0.3813 -0.1378
12895SOL     OW42124   0.945   5.241   2.469 -0.0086  0.4694 -0.6745
12895SOL    HW142125   0.989   5.153   2.453 -2.0781 -0.9927  1.2389
12895SOL    HW242126   0.899   5.271   2.386 -0.5605 -1.0303 -0.9323
12896SOL     OW42127   8.126   9.561   0.370 -0.1466  0.3973 -0.3668
12896SOL    HW142128   8.029   9.580   0.356 -0.1690  0.5761  0.0059
12896SOL    HW242129   8.142   9.463   0.362 -0.8942 -0.0297  2.5310
12898SOL     OW42130   4.281   4.754   0.550  0.0896  0.1451  0.3560
12898SOL    HW142131   4.277   4.724   0.646  0.3207  0.3497  0.4290
12898SOL    HW242132   4.310   4.677   0.493  0.8189  0.2708  0.5632
12899SOL     OW42133   2.268   2.751   4.245 -0.6014 -0.0563 -0.0303
12899SOL    HW142134   2.287   2.847   4.265  0.0515 -0.1893  0.0194
12899SOL    HW242135   2.267   2.699   4.330 -0.9991 -0.0836 -0.0536
12900SOL     OW42136   5.725   9.146   2.315 -0.0189  0.1664 -1.0579
12900SOL    HW142137   5.718   9.245   2.299 -1.2129  0.3280  0.4076
12900SOL    HW242138   5.746   9.129   2.411 -1.5817 -1.0582 -0.9269
12901SOL     OW42139   9.742   8.395   3.267  0.0458  0.1809  0.1677
12901SOL    HW142140   9.761   8.359   3.176  1.5458  0.6405  0.2879
12901SOL    HW242141   9.663   8.457   3.262  1.5988  2.0892 -1.2920
12902SOL     OW42142   9.294   7.858   1.023  0.4219 -0.5146  0.5877
12902SOL    HW142143   9.223   7.925   0.999 -0.1800 -1.1309  0.6458
12902SOL    HW242144   9.376   7.875   0.968 -0.3011 -0.7514 -0.5695
12903SOL     OW42145   9.536   3.902   3.548  0.1306  0.3334  0.0504
12903SOL    HW142146   9.593   3.828   3.585  1.0779  0.8282 -0.3893
12903SOL    HW242147   9.452   3.910   3.601  0.8367  0.1077  1.2055
12905SOL     OW42148   0.317   0.729   1.343 -0.1919  0.9071  0.5668
12905SOL    HW142149   0.315   0.734   1.443 -1.3464  0.2579  0.5974
12905SOL    HW242150   0.283   0.639   1.314 -0.6062  1.3738 -0.4288
12907SOL     OW42151   3.820   6.176   2.732  0.9715  0.7227 -0.3191
12907SOL    HW142152   3.903   6.164   2.787  1.1989 -0.7767 -0.9771
12907SOL    HW242153   3.759   6.241   2.778  2.1587  1.2282  0.5661
12908SOL     OW42154   4.335   4.179   0.009  0.1313  0.2697  0.7524
12908SOL    HW142155   4.413   4.218   0.058  2.3678 -0.5497 -2.0035
12908SOL    HW242156   4.305   4.243  -0.062 -0.2184 -0.3532  0.3304
12911SOL     OW42157   8.150   3.998   4.271 -0.3859 -0.2922 -0.4905
12911SOL    HW142158   8.066   4.035   4.231  0.1427  1.1970 -0.2255
12911SOL    HW242159   8.228   4.056   4.246  0.4577 -1.2435 -0.1120
12912SOL     OW42160   5.522   0.859   2.652  1.0032  0.1804  1.1483
12912SOL    HW142161   5.440   0.874   2.706 -0.7229 -0.3073 -1.2768
12912SOL    HW242162   5.550   0.764   2.659  0.6190  0.0543  0.9481
12913SOL     OW42163   8.920   0.635   2.044 -0.1654 -0.7099  0.4489
12913SOL    HW142164   8.865   0.657   1.964 -1.0311 -1.4428  0.8309
12913SOL    HW242165   8.874   0.564   2.098  0.9103 -0.9783  1.0382
12915SOL     OW42166   6.306   0.463   0.116  0.0529 -0.2305 -0.2589
12915SOL    HW142167   6.312   0.553   0.159  0.0817 -1.0206  1.4603
12915SOL    HW242168   6.320   0.471   0.017 -0.2603  1.6739 -0.1514
12916SOL     OW42169   8.914   8.922   1.096  0.0652 -0.0336 -0.2035
12916SOL    HW142170   8.839   8.921   1.029 -1.8842 -1.5191  1.9476
12916SOL    HW242171   8.888   8.979   1.174  0.5765 -1.6968  1.2117
12917SOL     OW42172   1.207   5.789   1.061  0.0964 -0.0640  0.0018
12917SOL    HW142173   1.230   5.811   0.966  0.4196 -0.1204  0.0639
12917SOL    HW242174   1.226   5.869   1.118 -1.1970  0.3570 -0.1462
12919SOL     OW42175   0.974   2.554   3.207  0.0387 -0.5928  0.4092
12919SOL    HW142176   1.005   2.511   3.292 -0.5953 -1.9223 -0.0142
12919SOL    HW242177   0.916   2.490   3.157  0.1064  0.3154 -0.8516
12920SOL     OW42178   9.551   6.750   2.381  0.0181  0.3868  0.5691
12920SOL    HW142179   9.560   6.807   2.300 -0.1672  0.8712  0.8902
12920SOL    HW242180   9.472   6.689   2.371 -0.1000  0.5589  0.4568
12921SOL     OW42181   4.774   7.115   2.779  0.2997 -0.9189 -0.3687
12921SOL    HW142182   4.829   7.171   2.717  0.4705 -1.1071 -0.3879
12921SOL    HW242183   4.677   7.125   2.756  0.2454  0.2358  0.3448
12922SOL     OW42184   4.167   5.857   2.322  0.0745 -0.2820 -0.7913
12922SOL    HW142185   4.185   5.784   2.256 -0.3260 -0.4738 -0.6900
12922SOL    HW242186   4.241   5.924   2.319  0.0109 -0.2409 -1.5009
12923SOL     OW42187   9.428   1.390   4.192 -0.2271  0.3301  0.2125
12923SOL    HW142188   9.336   1.357   4.217 -0.1778 -1.0632 -1.3624
12923SOL    HW242189   9.465   1.332   4.120  2.0508  0.6855  1.0624
12924SOL     OW42190   3.500   9.853   2.122  0.1499 -1.1450 -0.0727
12924SOL    HW142191   3.568   9.823   2.188  0.0889  0.0386  0.5467
12924SOL    HW242192   3.530   9.830   2.029  0.6232 -2.0731  0.3081
12925SOL     OW42193   5.502   9.009   2.219  0.2837 -0.3016  0.8237
12925SOL    HW142194   5.583   9.050   2.260 -0.1194  1.2727  0.0804
12925SOL    HW242195   5.474   9.061   2.139  0.5952 -2.9029 -1.0397
12926SOL     OW42196   3.111   9.018   0.182  0.0100 -0.0944 -0.4974
12926SOL    HW142197   3.128   9.028   0.084  2.0614  2.4226  0.0798
12926SOL    HW242198   3.147   8.930   0.213 -0.3366 -0.7512 -1.9061
12927SOL     OW42199   1.265   3.526   0.758  0.1730  0.1180  0.1614
12927SOL    HW142200   1.207   3.448   0.734 -0.6137  0.6713  0.2412
12927SOL    HW242201   1.330   3.544   0.684  1.5985 -1.7477  0.9113
12929SOL     OW42202   4.521   3.899   1.787 -0.1788 -0.0610 -0.7506
12929SOL    HW142203   4.530   3.950   1.701  3.2355 -1.2226 -1.1372
12929SOL    HW242204   4.461   3.821   1.774 -1.1927  0.8319 -1.5419
12931SOL     OW42205   9.399   4.111   1.441  0.1191 -0.2254  0.3842
12931SOL    HW142206   9.474   4.164   1.401  0.7213 -0.9362  0.5523
12931SOL    HW242207   9.372   4.151   1.529  0.8661 -0.4415  0.7190
12932SOL     OW42208   9.091   7.797   0.087  0.4408  0.9622  0.2139
12932SOL    HW142209   9.145   7.783   0.004  1.2588  2.0799  0.5494
12932SOL    HW242210   9.151   7.797   0.167 -0.3500 -0.1300  0.8249
12933SOL     OW42211   9.362   4.510   2.207  0.0772  0.4817  0.2093
12933SOL    HW142212   9.297   4.496   2.133  0.5352 -2.9276  0.3725
12933SOL    HW242213   9.313   4.543   2.288 -1.2949 -0.8252 -0.0565
12934SOL     OW42214   0.128   8.764   1.418 -0.6673 -0.6131  0.9002
12934SOL    HW142215   0.053   8.816   1.459 -1.5152  1.3127 -2.7967
12934SOL    HW242216   0.090   8.696   1.355  0.6265 -0.8753  0.3942
12935SOL     OW42217   8.465   5.722   3.236  0.1065 -0.1564 -0.6996
12935SOL    HW142218   8.511   5.635   3.216  0.2355 -0.5204  1.1236
12935SOL    HW242219   8.368   5.713   3.216  0.3170 -0.3399 -1.6616
12936SOL     OW42220   9.246   8.902   0.776  0.0783 -0.1786  0.0627
12936SOL    HW142221   9.236   8.991   0.731  0.3759  0.2040  0.7368
12936SOL    HW242222   9.333   8.900   0.825 -0.3467 -0.5018  0.8021
12937SOL     OW42223   0.257   1.931   1.227  0.1219 -0.4141 -0.0956
12937SOL    HW142224   0.178   1.870   1.224  0.6657 -1.1296 -0.3580
12937SOL    HW242225   0.340   1.876   1.238  0.7486  0.1837 -1.7396
12938SOL     OW42226   7.167   0.576   3.273 -0.4437 -0.6848 -0.3539
12938SOL    HW142227   7.185   0.526   3.358  0.1358  1.9955  1.1453
12938SOL    HW242228   7.254   0.591   3.225 -0.4854 -0.2680 -0.3007
12939SOL     OW42229   2.743   8.894   1.695  0.3371  0.1098 -0.2054
12939SOL    HW142230   2.811   8.872   1.764 -0.8117 -3.1921 -0.0536
12939SOL    HW242231   2.788   8.908   1.607  1.3334 -0.4180  0.2224
12940SOL     OW42232   0.897   3.573   3.644 -0.1657 -0.4347 -0.2008
12940SOL    HW142233   0.798   3.562   3.652 -0.0605 -1.3165 -0.0304
12940SOL    HW242234   0.937   3.579   3.736 -0.2778  2.0188 -0.2980
12941SOL     OW42235   8.614   4.706   0.660  0.0600 -0.2998 -0.5854
12941SOL    HW142236   8.543   4.653   0.614  0.4933 -1.9379  0.5821
12941SOL    HW242237   8.673   4.749   0.592 -0.0444 -1.6682 -1.5510
12943SOL     OW42238   7.040   7.625   2.891 -0.8967  0.4099 -0.4263
12943SOL    HW142239   7.026   7.722   2.911 -0.3993  0.7038 -1.4553
12943SOL    HW242240   7.074   7.579   2.973 -0.5347  1.2378 -0.1031
12944SOL     OW42241   3.070   4.346   2.260  0.1709  0.8430 -0.2884
12944SOL    HW142242   3.073   4.246   2.257 -1.8161  0.7715 -0.8295
12944SOL    HW242243   3.080   4.377   2.354 -1.7887  0.0039  0.2122
12945SOL     OW42244   3.611   4.244   3.345  0.3130 -0.0274  0.0726
12945SOL    HW142245   3.657   4.156   3.328 -0.8605 -1.0519  2.0695
12945SOL    HW242246   3.649   4.286   3.427 -0.0688  0.7054 -0.1205
12946SOL     OW42247   0.539   4.245   1.082  0.0110  0.2346 -0.0477
12946SOL    HW142248   0.588   4.170   1.128 -0.9895 -0.1757  0.3482
12946SOL    HW242249   0.494   4.302   1.150 -2.2301 -0.8943 -0.5353
12947SOL     OW42250   7.311   0.549   0.098 -0.4178 -0.2049 -0.0347
12947SOL    HW142251   7.313   0.482   0.024  0.0426 -2.1120  1.6601
12947SOL    HW242252   7.216   0.569   0.122 -0.5605 -0.1197 -0.6552
12948SOL     OW42253   3.823   1.701   4.098  0.0250 -0.2844 -0.5801
12948SOL    HW142254   3.741   1.667   4.054 -0.7077  0.1291  0.4427
12948SOL    HW242255   3.830   1.800   4.087 -0.3596 -0.1230  0.5219
12949SOL     OW42256   2.406   8.113   0.734  0.6136  0.5925  0.6537
12949SOL    HW142257   2.424   8.015   0.746 -0.6882  0.2983  0.3459
12949SOL    HW242258   2.479   8.154   0.680 -0.4377 -0.9249 -2.0619
12950SOL     OW42259   5.241   7.696   2.366 -0.5644 -0.0496  0.6346
12950SOL    HW142260   5.325   7.676   2.315 -2.1212  0.1639 -2.0450
12950SOL    HW242261   5.162   7.685   2.307 -2.2820  2.3877  2.3864
12951SOL     OW42262   0.282   5.317   1.056 -0.2201  0.2975 -0.1859
12951SOL    HW142263   0.268   5.226   1.018  0.2604 -0.9635  2.5171
12951SOL    HW242264   0.313   5.379   0.984 -0.7297 -1.5987 -2.1001
12952SOL     OW42265   2.810   1.278   4.100 -0.3816 -0.2313  0.3764
12952SOL    HW142266   2.826   1.276   4.001 -0.3051  0.5995  0.3638
12952SOL    HW242267   2.802   1.373   4.130 -1.2195 -0.5129  1.0453
12953SOL     OW42268   4.797   2.055   0.186 -0.3902  0.3676  0.1481
12953SOL    HW142269   4.791   1.969   0.235  1.9721 -0.9084 -1.6658
12953SOL    HW242270   4.710   2.075   0.141 -0.8281 -1.2819  0.2527
12954SOL     OW42271   0.846   1.258   1.138  0.3008 -0.1655 -0.0385
12954SOL    HW142272   0.748   1.268   1.149  0.1419 -0.4778 -1.1163
12954SOL    HW242273   0.874   1.293   1.048  0.9929 -1.1827 -0.2330
12955SOL     OW42274   2.322   3.749   3.003  0.2312 -0.3422  0.0343
12955SOL    HW142275   2.267   3.766   3.084 -0.0728 -0.7037 -0.0940
12955SOL    HW242276   2.273   3.779   2.922 -0.2657 -1.6904 -0.1835
12956SOL     OW42277   1.666   1.461   3.032  0.1796 -1.0043  0.1310
12956SOL    HW142278   1.569   1.438   3.046  0.5593 -1.8852  1.4141
12956SOL    HW242279   1.718   1.378   3.015  0.7747 -0.5713 -0.1921
12957SOL     OW42280   2.819   7.532   3.182 -0.1167  0.3323 -0.1014
12957SOL    HW142281   2.834   7.482   3.097  0.1743  0.5933 -0.2025
12957SOL    HW242282   2.723   7.523   3.209 -0.0493 -0.3505 -0.0722
12958SOL     OW42283   3.307   2.292   2.294  0.9230 -0.3140  0.2919
12958SOL    HW142284   3.321   2.301   2.195  1.8230  1.1430  0.5210
12958SOL    HW242285   3.211   2.277   2.313  0.3070  2.1807 -0.6638
12959SOL     OW42286   3.397   6.625   3.023 -0.0400  0.1329  0.8419
12959SOL    HW142287   3.320   6.568   3.049 -0.2273 -0.6920 -1.3983
12959SOL    HW242288   3.420   6.609   2.927 -0.4671  4.2396 -0.0536
12960SOL     OW42289   0.939   2.866   0.285  0.9918  0.0759  0.0772
12960SOL    HW142290   0.879   2.930   0.333 -0.0364 -0.4637 -0.4832
12960SOL    HW242291   0.895   2.833   0.202  2.0334 -0.3864 -0.3112
12962SOL     OW42292   2.981   8.454   2.160  0.7832  0.0895 -0.0889
12962SOL    HW142293   2.915   8.412   2.098 -0.0586  2.4643 -0.8623
12962SOL    HW242294   2.934   8.520   2.219  2.2403  0.7933  0.3103
12963SOL     OW42295   8.789   4.022   1.576 -0.0953  0.4347 -0.1702
12963SOL    HW142296   8.802   4.106   1.524 -0.8433  0.1498 -0.8409
12963SOL    HW242297   8.696   3.987   1.560  0.9937 -1.8467 -1.9065
12964SOL     OW42298   7.914   7.382   1.426 -0.0912 -0.0983  0.3831
12964SOL    HW142299   7.815   7.376   1.416  0.0029 -0.2661 -0.4957
12964SOL    HW242300   7.940   7.477   1.444 -0.4465 -0.1267  1.0604
12965SOL     OW42301   8.797   0.044   2.503  0.5258 -0.0523  0.2405
12965SOL    HW142302   8.751  -0.031   2.551 -0.2754  0.7970  0.8426
12965SOL    HW242303   8.870   0.008   2.446  0.9696 -1.1665  1.4938
12966SOL     OW42304   4.522   3.125   3.109 -0.2400 -0.3924  0.4394
12966SOL    HW142305   4.510   3.213   3.063 -1.0744 -0.1583  1.0901
12966SOL    HW242306   4.618   3.114   3.136  0.5701 -1.1780 -2.5990
12969SOL     OW42307   1.652   3.791   0.223 -0.1767 -0.3014  0.4401
12969SOL    HW142308   1.639   3.844   0.307  1.0425  0.9798 -0.1671
12969SOL    HW242309   1.675   3.853   0.148  0.0178 -1.5687 -0.5565
12970SOL     OW42310   7.553   1.776   2.984 -0.2075  0.2554  0.5202
12970SOL    HW142311   7.475   1.786   2.922 -0.4286  0.9169  0.8946
12970SOL    HW242312   7.558   1.856   3.044  0.2306 -0.2015  1.0995
12971SOL     OW42313   2.127   0.514   0.426  0.6498 -0.0737 -0.6333
12971SOL    HW142314   2.212   0.543   0.470 -0.2372  1.0095  0.4195
12971SOL    HW242315   2.051   0.565   0.466 -0.3158  0.0950 -2.6645
12972SOL     OW42316   2.469   2.754   2.806  0.4329  0.2378  0.1379
12972SOL    HW142317   2.455   2.756   2.905 -1.8689 -0.7106 -0.1435
12972SOL    HW242318   2.567   2.747   2.787  0.8325 -0.7993  2.3814
12973SOL     OW42319   7.327   9.522   4.447  0.8839  0.2862 -0.4627
12973SOL    HW142320   7.405   9.581   4.424  1.3257 -0.0873  0.0717
12973SOL    HW242321   7.266   9.516   4.368  1.9692 -0.3253 -1.2708
12974SOL     OW42322   2.868   7.657   0.438 -0.2450  0.3113 -0.4513
12974SOL    HW142323   2.814   7.652   0.522 -1.7577  1.8235 -1.2838
12974SOL    HW242324   2.963   7.678   0.460 -0.8052  1.6046  0.8567
12977SOL     OW42325   7.999   1.709   3.374 -0.4015 -0.4481 -0.0724
12977SOL    HW142326   7.975   1.612   3.370  1.3671 -0.8996  0.0401
12977SOL    HW242327   8.006   1.746   3.282 -1.8278 -0.2222 -0.1044
12979SOL     OW42328   1.715   1.572   0.534 -0.0906 -0.0787 -0.0512
12979SOL    HW142329   1.789   1.629   0.570  0.8011 -1.5296  0.4515
12979SOL    HW242330   1.754   1.496   0.482 -1.2521 -0.3598 -0.5174
12980SOL     OW42331   1.990   0.187   1.178 -0.4563  0.0424 -0.3577
12980SOL    HW142332   2.012   0.149   1.088 -1.2103  0.2315 -0.6325
12980SOL    HW242333   1.891   0.199   1.185 -0.4206 -0.1784  0.5883
12982SOL     OW42334   3.237   6.428   1.208 -0.4042  0.3657  0.1701
12982SOL    HW142335   3.262   6.500   1.143 -2.0058 -0.7093 -1.7035
12982SOL    HW242336   3.293   6.436   1.290 -0.2304  3.4411 -0.2077
12983SOL     OW42337   8.060   3.869   0.675 -0.5188  0.0910 -0.1253
12983SOL    HW142338   8.137   3.829   0.625 -0.8520 -0.5568 -0.1236
12983SOL    HW242339   8.094   3.937   0.740 -0.0614  0.7367 -1.0333
12985SOL     OW42340   0.670   8.798   1.094 -0.0202  0.2161  0.0595
12985SOL    HW142341   0.709   8.721   1.043  2.1112  1.6458 -0.5309
12985SOL    HW242342   0.684   8.882   1.043 -0.1745  1.3373  1.8375
12986SOL     OW42343   4.000   6.818   2.930  0.0483 -0.3705 -0.6419
12986SOL    HW142344   4.035   6.890   2.990 -0.9279 -2.2546  2.3328
12986SOL    HW242345   4.061   6.738   2.936 -0.7146 -0.9999 -1.2561
12987SOL     OW42346   0.371   3.046   4.178  0.4205  0.0439 -0.2093
12987SOL    HW142347   0.385   3.125   4.119  0.3255  0.9145  0.9268
12987SOL    HW242348   0.454   2.991   4.181  0.4538  0.0390 -1.0728
12988SOL     OW42349   2.507   2.293   0.569  0.1546  0.1035  0.2562
12988SOL    HW142350   2.447   2.354   0.621  1.5214  0.0767  1.8717
12988SOL    HW242351   2.549   2.226   0.630  3.6722  1.5824 -0.4121
12989SOL     OW42352   1.379   6.947   2.785  0.8963  0.0609 -0.0472
12989SOL    HW142353   1.355   7.040   2.757  1.1196 -0.4083 -1.8775
12989SOL    HW242354   1.355   6.883   2.712 -0.9586 -1.5805  1.9298
12992SOL     OW42355   3.881   4.898   1.819  0.3003  0.0547  0.1985
12992SOL    HW142356   3.944   4.907   1.741  0.8480 -2.6174  0.2938
12992SOL    HW242357   3.792   4.866   1.787  0.0295  0.5274  0.4758
12993SOL     OW42358   9.098   9.090   0.501 -0.0964  0.3372  0.1841
12993SOL    HW142359   9.137   9.161   0.559  0.5733 -1.2988  1.7688
12993SOL    HW242360   9.103   9.119   0.405  4.0940  0.5989  0.4098
12994SOL     OW42361   3.123   8.168   3.328  0.2200 -0.3472 -0.0274
12994SOL    HW142362   3.200   8.106   3.341  0.3032 -0.4265 -0.8351
12994SOL    HW242363   3.042   8.132   3.374  0.2179 -1.1594 -0.6492
12995SOL     OW42364   0.404   5.663   1.462  0.3150  0.0979  0.1976
12995SOL    HW142365   0.499   5.654   1.491  0.4508  0.1320 -0.2396
12995SOL    HW242366   0.400   5.676   1.363 -0.1685 -0.3360  0.1599
12996SOL     OW42367   0.110   5.905   1.751  0.3776  0.6452  0.5259
12996SOL    HW142368   0.099   5.996   1.791 -1.6852  0.4675  0.3955
12996SOL    HW242369   0.024   5.874   1.712  1.1186 -1.2690  0.3158
12997SOL     OW42370   8.404   5.918   4.244  0.4524 -0.0187  0.1574
12997SOL    HW142371   8.374   5.958   4.158 -1.3454 -0.0622  0.7438
12997SOL    HW242372   8.439   5.991   4.304  0.4306  0.1936 -0.0857
12999SOL     OW42373   9.770   2.204   2.103  0.2479  0.2841  0.2081
12999SOL    HW142374   9.758   2.125   2.043  0.6021 -0.8374  1.5798
12999SOL    HW242375   9.740   2.286   2.056 -0.0248 -0.6506 -1.2897
13000SOL     OW42376   3.515   6.226   2.627  0.6610 -0.0636  0.0972
13000SOL    HW142377   3.424   6.199   2.595  0.3027  1.1763  0.0598
13000SOL    HW242378   3.577   6.235   2.549  0.2708  1.1302 -0.0835
13002SOL     OW42379   2.752   2.316   1.331 -0.2824 -0.3012  0.1730
13002SOL    HW142380   2.747   2.270   1.420  0.7463 -0.6733  0.0416
13002SOL    HW242381   2.661   2.319   1.291 -0.7343 -0.2770  1.1671
13003SOL     OW42382   2.800   7.948   0.564 -0.1796 -0.5323 -0.1125
13003SOL    HW142383   2.873   7.966   0.498  0.2006 -0.7101  0.2545
13003SOL    HW242384   2.758   7.860   0.545 -0.7157 -0.1599 -0.6999
13004SOL     OW42385   8.300   2.945   2.746 -0.5389  0.0185 -0.4146
13004SOL    HW142386   8.290   3.018   2.678  1.4970  2.5562  1.9429
13004SOL    HW242387   8.389   2.901   2.735 -0.0469  0.6961  0.8690
13008SOL     OW42388   6.480   1.484   2.489  0.1445  0.1654  0.1819
13008SOL    HW142389   6.557   1.437   2.531  0.4465  0.3685 -0.1425
13008SOL    HW242390   6.420   1.418   2.444  1.7136  0.2774 -2.1505
13009SOL     OW42391   6.321   0.755   1.110  0.5174  0.3914  0.0023
13009SOL    HW142392   6.241   0.814   1.121  0.2385  0.4521 -2.1019
13009SOL    HW242393   6.379   0.790   1.036  1.2812 -0.9356 -0.0494
13010SOL     OW42394   0.952   9.815   0.894  0.8561 -0.5423  0.0359
13010SOL    HW142395   1.012   9.830   0.815 -0.2812 -1.8543 -1.1005
13010SOL    HW242396   0.946   9.717   0.913 -0.2676 -0.3541  0.6641
13011SOL     OW42397   9.605   2.299   3.480 -0.2992  0.4218  0.0152
13011SOL    HW142398   9.610   2.358   3.399  0.4462 -1.0063 -0.9967
13011SOL    HW242399   9.654   2.214   3.463 -0.0758  0.1148  2.0010
13012SOL     OW42400   3.250   2.951   0.108 -0.0794 -0.7657 -0.0708
13012SOL    HW142401   3.249   2.909   0.198  1.5344  1.2584  0.9269
13012SOL    HW242402   3.316   2.904   0.050  0.8386 -0.4013  0.6619
13013SOL     OW42403   2.038   8.234   1.442 -0.3715  0.4837 -0.0318
13013SOL    HW142404   2.133   8.264   1.448 -0.4860  1.0288 -0.8191
13013SOL    HW242405   2.008   8.236   1.347 -1.5300  1.4582  0.3265
13014SOL     OW42406   1.345   6.310   1.562  0.1151  0.3701 -0.2133
13014SOL    HW142407   1.296   6.373   1.501  1.2121  1.1030 -0.3490
13014SOL    HW242408   1.306   6.315   1.654 -1.4803 -0.6572 -0.8209
13015SOL     OW42409   9.795   1.315   3.294  0.4570  0.3689  0.7333
13015SOL    HW142410   9.711   1.279   3.335  1.4696  0.5876  3.1313
13015SOL    HW242411   9.853   1.238   3.266  0.2293  0.1959  0.7332
13018SOL     OW42412   3.647   8.600   2.972 -0.1719  0.4160  0.5177
13018SOL    HW142413   3.610   8.685   3.011 -0.8112  0.6199 -0.5123
13018SOL    HW242414   3.746   8.607   2.966 -0.3645  1.8767 -1.3359
13019SOL     OW42415   5.358   9.286   1.613 -0.0054  0.3796  0.3190
13019SOL    HW142416   5.407   9.293   1.527 -0.8168  0.2249 -0.1589
13019SOL    HW242417   5.382   9.363   1.672  3.1714 -1.2691  1.3257
13020SOL     OW42418   7.558   3.381   0.457  0.3806 -0.3351  0.5014
13020SOL    HW142419   7.555   3.407   0.553  1.4164 -0.5731  0.6072
13020SOL    HW242420   7.536   3.284   0.447  0.2215 -0.2975  0.4996
13023SOL     OW42421   4.460   9.379   3.358 -0.1771 -0.1839 -0.2744
13023SOL    HW142422   4.416   9.455   3.406 -1.2869 -1.0215  0.0555
13023SOL    HW242423   4.539   9.348   3.412 -0.8740 -0.5207  0.5721
13025SOL     OW42424   6.359   0.328   2.023  0.7905 -0.4742  0.8103
13025SOL    HW142425   6.274   0.364   1.986  1.1779  1.1967  1.5155
13025SOL    HW242426   6.436   0.380   1.988  1.2835  0.0361  2.6237
13026SOL     OW42427   8.594   5.334   2.779 -0.1343  0.0478 -0.6287
13026SOL    HW142428   8.684   5.343   2.735  1.2647 -0.7095  1.9713
13026SOL    HW242429   8.558   5.426   2.799 -0.3527  0.3730 -2.4465
13028SOL     OW42430   9.146   1.962   1.867 -0.4984 -0.3649  0.3724
13028SOL    HW142431   9.145   1.995   1.961  0.0644 -2.5569  1.1833
13028SOL    HW242432   9.052   1.952   1.833 -0.7363 -0.9767  1.2141
13029SOL     OW42433   0.879   1.720   3.196  0.2403 -0.1405 -0.3852
13029SOL    HW142434   0.848   1.625   3.192  1.8282 -0.6527 -1.2614
13029SOL    HW242435   0.977   1.722   3.218  0.1092  1.3190  0.1303
13030SOL     OW42436   2.484   7.245   2.831 -0.4549  0.4589 -0.1400
13030SOL    HW142437   2.504   7.148   2.817 -1.6315  0.4688 -1.9283
13030SOL    HW242438   2.564   7.289   2.873 -0.0322 -1.3282  0.9877
13031SOL     OW42439   9.076   7.761   1.831 -0.5347  0.2286 -0.0710
13031SOL    HW142440   9.042   7.673   1.865  0.1025  0.2879  0.7361
13031SOL    HW242441   9.134   7.745   1.751  1.2081 -0.2800  1.2682
13033SOL     OW42442   0.889   8.234   3.543 -0.4150 -0.5453  0.5825
13033SOL    HW142443   0.968   8.247   3.603  0.1925 -1.3602 -0.0397
13033SOL    HW242444   0.848   8.145   3.559  1.0626 -1.6816 -1.7137
13034SOL     OW42445   9.625   8.652   3.569 -0.1037 -0.3711 -0.0488
13034SOL    HW142446   9.656   8.740   3.604  0.3011 -0.8973  0.9349
13034SOL    HW242447   9.540   8.626   3.616 -1.0597  0.2040 -1.4263
13035SOL     OW42448   0.228   0.132   1.913  0.0524 -0.2877 -0.5226
13035SOL    HW142449   0.315   0.087   1.933 -0.3820 -0.7658  0.3174
13035SOL    HW242450   0.217   0.140   1.814 -0.0043 -2.3367 -0.7058
13036SOL     OW42451   2.454   9.619   0.337 -0.0987  0.2668  0.1768
13036SOL    HW142452   2.471   9.699   0.279  0.0539  0.0388 -0.0938
13036SOL    HW242453   2.358   9.617   0.364  0.0453  0.9301  0.7648
13037SOL     OW42454   3.545   4.323   4.268  0.1252  0.2193  0.1078
13037SOL    HW142455   3.629   4.271   4.285 -0.9492 -1.5525  0.0862
13037SOL    HW242456   3.554   4.372   4.181  1.3404  0.4746  0.3642
13038SOL     OW42457   5.270   8.111   3.153 -0.0589  0.2762 -0.0095
13038SOL    HW142458   5.312   8.182   3.209 -0.3261  0.9744 -0.6944
13038SOL    HW242459   5.173   8.101   3.178  0.1146 -0.2417  0.4739
13039SOL     OW42460   5.792  10.000   1.544 -0.0482 -1.2304  0.4936
13039SOL    HW142461   5.779   9.974   1.639  0.3238  1.5414  1.3491
13039SOL    HW242462   5.888   9.988   1.519  0.1194 -0.6741  0.8732
13041SOL     OW42463   3.853   9.201   4.015  0.1876  1.0670 -0.1255
13041SOL    HW142464   3.758   9.231   4.009 -0.3423  0.4687  3.7184
13041SOL    HW242465   3.904   9.265   4.071  0.7873 -1.2726  2.0880
13042SOL     OW42466   5.782   1.310   2.278  0.0603  0.8870 -0.0840
13042SOL    HW142467   5.700   1.358   2.246  0.2288  1.2312 -0.0113
13042SOL    HW242468   5.756   1.230   2.330 -0.2414  1.4522  0.6422
13043SOL     OW42469   1.796   5.200   1.888 -0.2215 -0.4319  0.6698
13043SOL    HW142470   1.713   5.180   1.836  0.6666 -0.6081 -0.7139
13043SOL    HW242471   1.872   5.146   1.852  1.3197  2.3970 -0.5182
13044SOL     OW42472   7.392   2.754   0.746  0.0008  0.2264 -0.2871
13044SOL    HW142473   7.425   2.771   0.839 -0.7808 -0.8709  0.2130
13044SOL    HW242474   7.322   2.682   0.749  0.1106  0.0491 -1.7486
13045SOL     OW42475   8.758   8.038   0.153  0.0564  0.1820  0.5302
13045SOL    HW142476   8.807   7.994   0.077  0.5202  0.3888  0.7068
13045SOL    HW242477   8.686   8.096   0.117  0.3665  0.3883  0.2438
13047SOL     OW42478   3.144   4.795   3.273 -0.2233 -0.2484  0.1634
13047SOL    HW142479   3.241   4.821   3.264 -0.4013 -0.2734 -2.2546
13047SOL    HW242480   3.137   4.711   3.326  1.0791 -0.1941  0.4508
13048SOL     OW42481   1.442   2.539   2.701 -0.4990 -0.5373  0.0995
13048SOL    HW142482   1.359   2.496   2.735 -1.1170  1.0688  0.6946
13048SOL    HW242483   1.519   2.516   2.761 -0.8804 -0.5912  0.5663
13050SOL     OW42484   0.236   3.771   4.421  0.3215 -0.2977  0.5133
13050SOL    HW142485   0.230   3.857   4.369 -0.8655 -1.0818 -0.6639
13050SOL    HW242486   0.332   3.750   4.438  0.6511  0.9383  0.2515
13051SOL     OW42487   0.034   3.577   1.297 -0.2173  0.0272 -0.1692
13051SOL    HW142488   0.020   3.504   1.363 -0.3574  0.4150  0.2358
13051SOL    HW242489  -0.006   3.551   1.209  1.9346 -1.4326 -0.7600
13052SOL     OW42490   7.928   4.408   4.139  0.4764 -0.4612 -0.2222
13052SOL    HW142491   7.972   4.341   4.080  2.4047  2.0463 -1.7251
13052SOL    HW242492   7.989   4.486   4.152 -2.1265  1.5015  0.5733
13053SOL     OW42493   7.366   8.336   1.884  0.1408  0.2146  0.1141
13053SOL    HW142494   7.442   8.392   1.916  0.4543 -0.2188  0.1280
13053SOL    HW242495   7.400   8.247   1.855 -0.1700  0.5104 -1.2081
13056SOL     OW42496   7.431   3.240   4.420 -0.0943  0.6505 -0.4306
13056SOL    HW142497   7.518   3.256   4.372  0.6998 -1.7063  0.1409
13056SOL    HW242498   7.385   3.161   4.379 -0.5187  0.0394  1.1903
13057SOL     OW42499   6.117   7.912   3.426 -0.1159 -0.5901 -0.0883
13057SOL    HW142500   6.128   7.997   3.375 -0.3025 -0.7425 -0.3867
13057SOL    HW242501   6.020   7.897   3.446 -0.2775 -1.5719 -1.5050
13058SOL     OW42502   4.716   7.214   3.454 -0.1264 -0.0882 -0.0521
13058SOL    HW142503   4.732   7.143   3.522  0.1509 -0.2944 -0.3286
13058SOL    HW242504   4.637   7.269   3.481  0.6645  0.5419  0.9983
13059SOL     OW42505   0.069   6.680   4.103  0.2978  0.1013  0.5468
13059SOL    HW142506   0.084   6.759   4.163  0.4842  0.1366  0.4565
13059SOL    HW242507  -0.014   6.633   4.130 -1.7094  2.3212 -1.5479
13060SOL     OW42508   8.903   0.297   3.417  0.1680  0.6567 -0.2976
13060SOL    HW142509   8.940   0.390   3.418  2.7860 -0.3728  0.6979
13060SOL    HW242510   8.968   0.235   3.374 -3.2699 -0.1086 -4.7853
13061SOL     OW42511   6.271   0.053   2.905  0.1110 -0.2791  0.1969
13061SOL    HW142512   6.286   0.015   2.814  0.0924 -0.0145  0.0844
13061SOL    HW242513   6.271   0.153   2.901 -0.9330 -0.2664  0.3172
13062SOL     OW42514   6.279   8.810   3.474 -0.8768  0.0641 -0.3036
13062SOL    HW142515   6.368   8.836   3.437 -0.2989 -1.7966 -0.3100
13062SOL    HW242516   6.207   8.833   3.408 -0.0136 -1.7791 -1.9640
13063SOL     OW42517   0.744   6.517   0.629 -0.6070 -0.1178  0.0390
13063SOL    HW142518   0.725   6.447   0.699  0.2434 -0.5012 -0.1023
13063SOL    HW242519   0.677   6.510   0.556 -0.8461 -0.4405  0.2860
13064SOL     OW42520   8.654   5.215   2.032  0.1221 -0.1403  0.0283
13064SOL    HW142521   8.609   5.263   1.957  1.3881 -0.6213 -1.0612
13064SOL    HW242522   8.598   5.137   2.061  0.4889 -1.0497 -1.6661
13065SOL     OW42523   8.318   0.150   2.197 -0.5936  0.0189  0.2868
13065SOL    HW142524   8.301   0.121   2.103  1.1672  1.8079 -0.6167
13065SOL    HW242525   8.384   0.089   2.240 -0.2644  0.0820 -0.1307
13066SOL     OW42526   0.316   4.544   3.623 -0.2786 -0.2292  0.5633
13066SOL    HW142527   0.365   4.628   3.644 -0.8021  0.6617 -1.7390
13066SOL    HW242528   0.379   4.479   3.579 -0.5372 -0.0303 -0.1004
13067SOL     OW42529   0.574   4.680   1.379 -0.0385 -0.0688  0.4379
13067SOL    HW142530   0.545   4.684   1.283 -1.7557  0.0868  0.9512
13067SOL    HW242531   0.495   4.664   1.438  1.0286 -0.3737  1.8272
13068SOL     OW42532   8.837   1.980   4.023 -0.1010 -0.9384 -0.2360
13068SOL    HW142533   8.853   1.881   4.020 -1.3180 -1.1159 -0.9054
13068SOL    HW242534   8.826   2.015   3.930 -0.5512 -0.3230  0.0452
13069SOL     OW42535   3.267   7.721   1.682  0.1116 -0.4167  0.5507
13069SOL    HW142536   3.248   7.622   1.683  0.7767 -0.5935 -1.7213
13069SOL    HW242537   3.231   7.761   1.597 -2.2906  1.7596  2.5317
13070SOL     OW42538   8.307   4.690   3.051  0.1584  0.4213  0.0278
13070SOL    HW142539   8.292   4.785   3.078 -0.3255  0.3589 -0.0175
13070SOL    HW242540   8.331   4.687   2.954 -0.2920  0.4559 -0.0835
13071SOL     OW42541   3.778   8.499   2.614 -0.1743 -0.2758  0.1993
13071SOL    HW142542   3.755   8.404   2.595  0.3654 -0.6788  1.4725
13071SOL    HW242543   3.812   8.542   2.531  4.3642 -2.6478  0.6681
13072SOL     OW42544   3.895   4.360   2.355 -0.1770  0.0943 -0.2536
13072SOL    HW142545   3.958   4.329   2.284 -0.5016  1.5151 -1.1846
13072SOL    HW242546   3.856   4.448   2.329 -0.8931  0.2702  1.3307
13073SOL     OW42547   9.284   4.747   0.605 -0.0863 -0.2025 -0.4268
13073SOL    HW142548   9.347   4.750   0.682 -0.5465 -0.6664 -0.0304
13073SOL    HW242549   9.190   4.754   0.638 -0.3510 -1.6148 -0.8392
13074SOL     OW42550   4.389   8.893   2.996  0.4977  0.3235 -0.2254
13074SOL    HW142551   4.338   8.898   3.082  0.4592  1.8731 -0.3191
13074SOL    HW242552   4.331   8.926   2.921  1.1303  0.6850 -0.5602
13076SOL     OW42553   3.740   4.036   1.098  0.0889  0.1022 -0.3630
13076SOL    HW142554   3.747   4.099   1.020 -0.8651 -2.3191 -2.4835
13076SOL    HW242555   3.744   3.942   1.064 -0.2505 -0.9962  2.5700
13078SOL     OW42556   9.256   1.257   0.435  0.1700 -0.4568 -0.1620
13078SOL    HW142557   9.316   1.258   0.515 -0.9885 -1.4595  0.7560
13078SOL    HW242558   9.309   1.273   0.352  1.5009 -0.1238  0.7475
13080SOL     OW42559   1.851   2.650   1.029  0.2423 -0.5236 -0.6539
13080SOL    HW142560   1.839   2.584   0.955 -1.9407 -2.1728  1.1064
13080SOL    HW242561   1.796   2.622   1.108  0.3159  2.6850  0.6054
13082SOL     OW42562   4.769   1.470   2.098  0.6885  0.5939 -0.4300
13082SOL    HW142563   4.710   1.500   2.023  0.7596  1.0400 -0.3049
13082SOL    HW242564   4.724   1.395   2.148 -0.1334  1.4880  0.1797
13083SOL     OW42565   9.112   1.864   0.767  0.0202 -0.4049 -0.2096
13083SOL    HW142566   9.192   1.825   0.721  1.9700  2.7636  0.3713
13083SOL    HW242567   9.080   1.943   0.715 -1.3741 -0.2985  0.7899
13084SOL     OW42568   6.688   0.803   3.437  0.0615  0.5679  0.0823
13084SOL    HW142569   6.781   0.767   3.427  0.0067  0.1732  0.9312
13084SOL    HW242570   6.684   0.897   3.402  0.7197  0.5053 -0.1639
13086SOL     OW42571   8.761   2.304   0.748 -0.0638  0.2771  0.4095
13086SOL    HW142572   8.720   2.380   0.698 -1.3970 -0.3109  0.5899
13086SOL    HW242573   8.713   2.219   0.726 -0.1418 -0.1262  2.0559
13088SOL     OW42574   1.720   2.851   1.926  0.6626  0.5278  0.1028
13088SOL    HW142575   1.655   2.836   1.852  0.7315 -0.1159  0.1736
13088SOL    HW242576   1.799   2.902   1.891  0.5903  0.4215 -0.2125
13090SOL     OW42577   6.647   0.027   2.475  0.9836 -0.2509  0.3190
13090SOL    HW142578   6.694  -0.038   2.415 -1.5426 -1.6409 -0.2423
13090SOL    HW242579   6.661   0.001   2.570  0.5509 -1.2696  0.1190
13091SOL     OW42580   3.845   2.578   0.603  0.5303 -0.1185  0.2174
13091SOL    HW142581   3.818   2.674   0.612 -0.3491 -0.4161  0.9371
13091SOL    HW242582   3.909   2.554   0.676  0.1986 -0.2574  0.4659
13092SOL     OW42583   4.051   2.911   1.527  0.1360 -0.7887 -0.1352
13092SOL    HW142584   4.022   2.842   1.593 -0.6689 -0.2087  0.1253
13092SOL    HW242585   4.050   2.872   1.435 -0.4287 -1.0936 -0.0013
13093SOL     OW42586   0.651   2.447   3.585 -0.9597 -0.4752 -0.0557
13093SOL    HW142587   0.750   2.445   3.600 -0.9763  0.1707  0.1623
13093SOL    HW242588   0.607   2.384   3.650 -0.6280 -1.3990 -0.7198
13094SOL     OW42589   7.588   9.121   3.967 -0.1066 -0.1263  0.0417
13094SOL    HW142590   7.543   9.077   4.045 -0.4217 -1.4354 -0.8729
13094SOL    HW242591   7.528   9.116   3.887  0.7914  0.0019 -0.6464
13095SOL     OW42592   9.931   3.744   4.210 -0.3112  0.8763  0.1856
13095SOL    HW142593   9.977   3.659   4.236 -0.8042  0.5915  0.1328
13095SOL    HW242594   9.890   3.786   4.291 -1.5886  0.1436 -0.0595
13096SOL     OW42595   2.193   4.674   2.672  0.0653  0.1989  0.1100
13096SOL    HW142596   2.185   4.772   2.652 -3.0604 -0.0416 -0.1826
13096SOL    HW242597   2.113   4.645   2.725  0.5136 -2.3549 -0.5401
13097SOL     OW42598   0.248   3.597   2.794 -0.1146  0.1529 -0.0377
13097SOL    HW142599   0.154   3.615   2.763  0.7937  2.2610 -1.6546
13097SOL    HW242600   0.245   3.542   2.878 -2.8196  1.2731  0.6498
13098SOL     OW42601   2.621   2.080   3.759  0.3516  0.3652 -0.0916
13098SOL    HW142602   2.551   2.024   3.804  0.9078  0.3506  0.7641
13098SOL    HW242603   2.649   2.154   3.820 -0.3495  1.5603 -1.2054
13099SOL     OW42604   7.541   1.843   0.876  0.3575  0.0432  0.3693
13099SOL    HW142605   7.542   1.917   0.809  0.8215 -0.8719 -0.6470
13099SOL    HW242606   7.456   1.847   0.928  0.4167  1.3399  0.3813
13100SOL     OW42607   0.818   8.917   4.215  0.1295  0.2493 -0.5766
13100SOL    HW142608   0.810   8.863   4.131 -2.5575  1.8149 -1.3742
13100SOL    HW242609   0.787   8.862   4.293  0.9094 -0.5814 -0.8390
13101SOL     OW42610   2.688   5.294   1.634  0.1500 -0.3670  0.4889
13101SOL    HW142611   2.733   5.359   1.695  0.2925 -0.3908  0.4065
13101SOL    HW242612   2.722   5.202   1.651  0.1761 -0.3767  0.3862
13102SOL     OW42613   0.895   4.500   3.874  0.0589 -0.2258 -0.0759
13102SOL    HW142614   0.838   4.580   3.893 -0.7178 -0.2991 -1.9938
13102SOL    HW242615   0.986   4.514   3.912 -0.1455  1.4674 -0.1835
13104SOL     OW42616   4.983   2.208   3.872 -0.2354  0.4848  0.5287
13104SOL    HW142617   4.962   2.146   3.796 -0.9349 -1.6153  2.3736
13104SOL    HW242618   5.082   2.222   3.877 -0.0891 -0.3294 -0.0356
13105SOL     OW42619   2.595   6.140   2.758  0.5455 -0.2753  0.2035
13105SOL    HW142620   2.557   6.186   2.839 -0.8624 -2.0080  0.5727
13105SOL    HW242621   2.629   6.050   2.784  1.8769 -0.0820 -0.7951
13108SOL     OW42622   1.842   8.567   2.343  0.4118  0.1259 -0.1425
13108SOL    HW142623   1.936   8.601   2.346  0.3324  0.5412 -1.5325
13108SOL    HW242624   1.793   8.615   2.270 -0.7801 -0.3151  0.3723
13109SOL     OW42625   0.663   6.737   0.281  0.0794 -0.2177  0.4107
13109SOL    HW142626   0.650   6.739   0.182  0.3806  2.6213  0.3882
13109SOL    HW242627   0.579   6.705   0.325 -1.5470  2.5207 -0.5632
13110SOL     OW42628   7.697   0.562   1.421 -0.1436 -0.1085 -0.6594
13110SOL    HW142629   7.706   0.565   1.520 -3.5729  2.7516 -0.3296
13110SOL    HW242630   7.617   0.507   1.396 -0.1434  0.3696 -1.7433
13113SOL     OW42631   2.620   2.884   1.321 -0.4033  0.0948  0.6330
13113SOL    HW142632   2.706   2.850   1.357 -0.4772  0.0590  0.7757
13113SOL    HW242633   2.618   2.872   1.221 -0.5691 -0.6489  0.7196
13115SOL     OW42634   5.883   9.284   3.033 -0.0299  0.2423  0.4030
13115SOL    HW142635   5.864   9.191   3.001  1.1137 -1.1316  3.5409
13115SOL    HW242636   5.813   9.346   2.999 -1.4789 -1.9680 -0.7679
13116SOL     OW42637   2.016   4.187   2.586 -0.6555  0.0555  0.1233
13116SOL    HW142638   1.970   4.247   2.651 -2.5356  0.4129 -1.5057
13116SOL    HW242639   2.031   4.235   2.499  1.5798 -0.5049  0.1486
13117SOL     OW42640   1.281   8.564   0.566  0.6730  0.1203 -0.7252
13117SOL    HW142641   1.374   8.567   0.603 -0.3677 -0.3467  2.0661
13117SOL    HW242642   1.268   8.639   0.502  1.8353  2.4471  1.6699
13119SOL     OW42643   0.360   8.005   3.838 -0.0846  0.2558  0.5998
13119SOL    HW142644   0.415   7.934   3.881  1.6868 -0.0706 -2.1064
13119SOL    HW242645   0.295   7.964   3.775  1.2781  1.0111 -1.3456
13121SOL     OW42646   0.159   6.436   2.455 -0.0943  0.4106  0.0948
13121SOL    HW142647   0.140   6.533   2.439 -2.3556 -0.1602 -0.8676
13121SOL    HW242648   0.074   6.389   2.476  0.7066 -1.7324 -1.3081
13122SOL     OW42649   9.588   7.651   1.017  0.2870  0.3545  0.0740
13122SOL    HW142650   9.618   7.573   1.073 -0.1943  0.0899 -0.0396
13122SOL    HW242651   9.629   7.735   1.053  1.2703 -0.0246 -0.1488
13123SOL     OW42652   9.432   5.945   1.965  0.6102 -0.0627 -0.1325
13123SOL    HW142653   9.381   6.031   1.978 -0.0057 -0.4177 -0.1629
13123SOL    HW242654   9.505   5.939   2.033 -1.1509 -0.8380  1.7609
13124SOL     OW42655   8.239   9.559   3.669 -0.1655  0.5179  0.0325
13124SOL    HW142656   8.331   9.519   3.667 -0.4414 -0.1221  0.1079
13124SOL    HW242657   8.243   9.649   3.712  0.4227  0.4855  0.0525
13125SOL     OW42658   6.491   1.478   3.804  0.1429 -0.0947  0.2944
13125SOL    HW142659   6.498   1.441   3.897  1.3136  0.9688  0.6376
13125SOL    HW242660   6.394   1.497   3.784 -0.0922 -0.1079  1.3765
13126SOL     OW42661   9.611   1.710   2.311 -0.1024  0.6025  0.3265
13126SOL    HW142662   9.523   1.726   2.267  0.6232 -0.0728 -1.4320
13126SOL    HW242663   9.670   1.790   2.297 -0.3492  0.9648  1.3118
13128SOL     OW42664   2.610   1.385   3.303  0.4954  0.1898 -0.4890
13128SOL    HW142665   2.556   1.329   3.239 -0.5713 -0.5735  1.0461
13128SOL    HW242666   2.693   1.336   3.327  0.7934  0.3822 -1.1167
13129SOL     OW42667   4.806   0.874   0.245  0.4545  0.1936  0.3059
13129SOL    HW142668   4.835   0.968   0.226 -0.1694  0.6179  1.3788
13129SOL    HW242669   4.799   0.823   0.160  1.3051  0.9679 -0.2407
13131SOL     OW42670   8.698   3.090   1.448 -0.2278  0.1082 -0.1573
13131SOL    HW142671   8.665   2.999   1.423  0.9904 -0.0519 -1.2336
13131SOL    HW242672   8.797   3.088   1.460  0.0962  1.7025 -2.2066
13132SOL     OW42673   8.815   4.060   1.141 -0.5059  0.3905 -0.3666
13132SOL    HW142674   8.860   4.008   1.214  0.6880 -0.4020 -1.6333
13132SOL    HW242675   8.835   4.157   1.152 -0.6006  0.3113  0.5370
13133SOL     OW42676   5.951   9.504   4.382  0.4064  0.4033 -0.2535
13133SOL    HW142677   5.916   9.598   4.388  1.6460  0.8579 -0.0632
13133SOL    HW242678   5.883   9.446   4.337 -0.8036  1.1685  0.5689
13134SOL     OW42679   2.622   1.888   2.782  0.1146  0.4721 -0.5039
13134SOL    HW142680   2.531   1.927   2.792 -0.9567 -1.9118 -0.5921
13134SOL    HW242681   2.625   1.830   2.700  1.8121  0.8022 -0.6983
13135SOL     OW42682   2.105   7.828   2.951 -0.6805  0.0066 -0.4404
13135SOL    HW142683   2.109   7.859   3.046  0.8961  0.7778 -0.7364
13135SOL    HW242684   2.017   7.855   2.911 -1.5192 -0.6686  0.8954
13136SOL     OW42685   4.774   9.623   4.369 -0.0529 -0.3871 -0.0745
13136SOL    HW142686   4.757   9.721   4.380  0.5217 -0.2420 -0.5129
13136SOL    HW242687   4.761   9.597   4.274  1.7964 -0.3425 -0.3640
13137SOL     OW42688   1.752   4.591   3.015  0.2215 -0.1815 -0.1740
13137SOL    HW142689   1.701   4.620   2.934  1.8768 -1.1812 -1.5832
13137SOL    HW242690   1.732   4.654   3.091 -1.8055  0.4033 -1.1628
13140SOL     OW42691   9.404   3.882   1.910  0.8710 -0.0930  0.1635
13140SOL    HW142692   9.498   3.885   1.879  0.8109  0.8438  0.0559
13140SOL    HW242693   9.402   3.875   2.010  1.0541 -0.2208  0.1572
13141SOL     OW42694   2.644   6.028   3.062  0.5781  0.0038  0.6440
13141SOL    HW142695   2.656   5.983   3.150 -0.7888 -1.0464  0.3168
13141SOL    HW242696   2.602   5.964   2.997  1.3244  0.8356 -0.7026
13142SOL     OW42697   7.743   0.111   0.066 -0.4540 -0.0314 -0.0917
13142SOL    HW142698   7.773   0.120   0.161 -2.0663 -0.3352  0.4519
13142SOL    HW242699   7.786   0.031   0.025 -1.3867 -1.1229  1.0291
13143SOL     OW42700   4.152   1.207   3.984  0.2967  0.0299 -0.1837
13143SOL    HW142701   4.121   1.187   4.077 -2.7557  1.8993 -0.7191
13143SOL    HW242702   4.211   1.288   3.985 -1.4374  1.3356 -0.0567
13144SOL     OW42703   8.783   5.425   3.014  0.0609  0.1373 -0.0886
13144SOL    HW142704   8.815   5.344   3.064 -0.5485  0.6762  1.1888
13144SOL    HW242705   8.808   5.416   2.917 -0.3349 -1.7534 -0.0376
13145SOL     OW42706   0.383   9.153   1.041 -0.1094  0.3601  0.5194
13145SOL    HW142707   0.284   9.139   1.039  0.1425 -1.4846  0.4513
13145SOL    HW242708   0.402   9.249   1.064 -1.9035  0.8228  0.1789
13146SOL     OW42709   2.356   8.134   3.963 -0.4054  0.5293 -0.1278
13146SOL    HW142710   2.292   8.136   3.886  1.0509  0.3526 -1.3585
13146SOL    HW242711   2.365   8.226   4.001  1.6809  1.3753 -2.5478
13147SOL     OW42712   1.427   4.794   3.055  0.2475  0.1675 -0.0370
13147SOL    HW142713   1.493   4.831   3.121  0.6946 -1.0851  0.2507
13147SOL    HW242714   1.463   4.804   2.962 -1.0308  3.2494 -0.2290
13149SOL     OW42715   0.904   3.188   3.408  0.1426  0.5205  0.4522
13149SOL    HW142716   0.828   3.153   3.463  1.2342  2.6696  3.3997
13149SOL    HW242717   0.990   3.154   3.444  0.8030  0.8846 -0.7541
13150SOL     OW42718   1.580   5.607   3.376  0.2633  0.3695  0.0847
13150SOL    HW142719   1.517   5.531   3.389  1.6539 -0.5133  1.7972
13150SOL    HW242720   1.559   5.680   3.441 -0.3497  1.0047 -0.8032
13151SOL     OW42721   0.113   5.663   1.301 -0.0650  0.6266  0.0624
13151SOL    HW142722   0.201   5.689   1.262 -1.0207  1.3854 -1.6635
13151SOL    HW242723   0.072   5.742   1.347  0.4069  0.1215  1.3570
13152SOL     OW42724   8.279   3.586   1.760 -0.2821  0.3717 -0.5316
13152SOL    HW142725   8.194   3.591   1.812 -0.2979  1.5420 -0.6503
13152SOL    HW242726   8.259   3.580   1.662 -0.2447  2.7498 -0.7197
13154SOL     OW42727   8.813   4.202   4.335 -0.4646  0.2037 -0.7687
13154SOL    HW142728   8.735   4.195   4.397  2.7586  2.1260  3.8305
13154SOL    HW242729   8.821   4.297   4.303  0.8583  0.3911  0.0838
13155SOL     OW42730   4.777   2.820   2.895  0.0797  0.1626 -0.5376
13155SOL    HW142731   4.760   2.800   2.798  1.2210 -2.4483 -0.2564
13155SOL    HW242732   4.770   2.735   2.947  1.0395  1.2842  1.4443
13156SOL     OW42733   3.709   2.926   1.380 -0.5490 -0.2047  0.2314
13156SOL    HW142734   3.696   2.898   1.285 -1.2116 -1.8235  0.7752
13156SOL    HW242735   3.779   2.997   1.385 -2.3715  1.7957 -1.7449
13158SOL     OW42736   0.086   3.177   1.376 -0.1484 -0.0625  0.5541
13158SOL    HW142737   0.053   3.084   1.394  2.2131 -0.5904  2.3940
13158SOL    HW242738   0.137   3.177   1.290 -1.8321 -0.0067 -0.4701
13159SOL     OW42739   5.717   8.966   3.435  0.1108 -0.2527 -0.2971
13159SOL    HW142740   5.749   8.925   3.521 -1.2682 -0.7312  0.0081
13159SOL    HW242741   5.639   9.026   3.454  0.6373  0.6705 -1.0508
13160SOL     OW42742   8.254   4.559   3.730 -0.4338  0.3229  0.0778
13160SOL    HW142743   8.190   4.522   3.663  1.0137 -0.1070 -1.0647
13160SOL    HW242744   8.298   4.484   3.779  0.7171  0.5916 -0.5556
13161SOL     OW42745   9.342   6.543   2.742 -0.0938  0.0520 -0.4690
13161SOL    HW142746   9.255   6.498   2.726 -0.7044 -0.5237  3.9065
13161SOL    HW242747   9.328   6.641   2.754 -0.3410 -0.2252  1.5729
13162SOL     OW42748   4.360   3.492   2.691 -0.2598  0.4212  0.6299
13162SOL    HW142749   4.444   3.439   2.694 -1.0743 -0.9337  0.0841
13162SOL    HW242750   4.285   3.435   2.657 -0.7792  2.4419 -1.7823
13163SOL     OW42751   9.201   7.923   2.081 -0.3415  0.7457 -0.1519
13163SOL    HW142752   9.105   7.912   2.056 -0.2651 -2.7660  0.7729
13163SOL    HW242753   9.258   7.873   2.015  0.5355 -0.4633  1.4917
13164SOL     OW42754   1.417   0.636   3.756 -0.7847  0.0739  0.0355
13164SOL    HW142755   1.475   0.717   3.760  0.5023 -0.8826  1.3383
13164SOL    HW242756   1.465   0.563   3.708 -1.6739 -0.1307 -0.5486
13165SOL     OW42757   6.989   2.175   3.274 -0.4965  0.1241 -0.0673
13165SOL    HW142758   7.046   2.093   3.278 -0.6556  0.0289  0.2545
13165SOL    HW242759   7.045   2.255   3.297 -0.4744  0.0417  0.1657
13167SOL     OW42760   9.628   2.420   3.225 -0.3080  0.0429 -0.4929
13167SOL    HW142761   9.565   2.367   3.170  0.5634 -1.6388  0.0930
13167SOL    HW242762   9.709   2.442   3.171  0.0175 -0.5780 -0.2671
13168SOL     OW42763   4.353   5.445   1.826  0.2332 -0.2689  0.0515
13168SOL    HW142764   4.386   5.457   1.732  1.1953 -1.6920  0.1861
13168SOL    HW242765   4.268   5.496   1.838 -0.5532 -1.0199 -1.9580
13169SOL     OW42766   8.288   2.726   3.600  0.1338  0.8137 -0.2702
13169SOL    HW142767   8.203   2.675   3.612  0.9438 -0.2353  1.1455
13169SOL    HW242768   8.366   2.671   3.630  1.3579  1.6916 -1.7068
13170SOL     OW42769   0.736   6.161   4.069  0.5119 -0.5108  0.0304
13170SOL    HW142770   0.742   6.071   4.113  0.4932  0.0582  1.2366
13170SOL    HW242771   0.815   6.173   4.008  1.2912 -0.7855  0.9593
13171SOL     OW42772   4.656   8.973   2.228  0.0375  0.1630  0.2912
13171SOL    HW142773   4.685   8.997   2.136  0.6868 -0.2879  0.3764
13171SOL    HW242774   4.632   8.876   2.232 -0.0404  0.1940  0.5846
13172SOL     OW42775   9.635   9.692   1.556  1.2592  0.0118 -0.3799
13172SOL    HW142776   9.636   9.773   1.498  4.4416 -0.1969 -0.6846
13172SOL    HW242777   9.572   9.624   1.518  0.3779  1.3900 -1.4176
13173SOL     OW42778   8.194   7.105   2.861  0.1403 -0.3043  0.9505
13173SOL    HW142779   8.186   7.019   2.911 -0.7308  0.0770  1.4871
13173SOL    HW242780   8.290   7.125   2.845  0.3537 -1.3121  0.9307
13175SOL     OW42781   0.761   8.824   3.939  0.1503 -0.0859  0.5051
13175SOL    HW142782   0.699   8.879   3.883 -0.1913  0.8957  1.7994
13175SOL    HW242783   0.854   8.829   3.901  0.1678  1.5840  0.7002
13177SOL     OW42784   6.200   9.156   1.831 -0.1777  0.7869  0.1565
13177SOL    HW142785   6.259   9.174   1.753  0.1834  0.0196  0.2497
13177SOL    HW242786   6.149   9.239   1.854  1.7685  1.8152  0.8384
13178SOL     OW42787   5.485   7.618   4.044  0.2444 -0.5080 -0.1553
13178SOL    HW142788   5.489   7.627   3.944  0.4340 -0.0472 -0.1046
13178SOL    HW242789   5.538   7.691   4.087 -1.2587  0.3356  0.3095
13179SOL     OW42790   7.427   0.966   3.956 -0.0397  0.1131  0.1312
13179SOL    HW142791   7.527   0.970   3.959  0.0055 -0.7216 -0.2013
13179SOL    HW242792   7.392   1.051   3.917  0.4371  1.3005  2.1970
13180SOL     OW42793   6.950   0.728   3.391 -0.6890  0.2495  0.0584
13180SOL    HW142794   7.002   0.810   3.416  0.6399 -1.7684  4.3002
13180SOL    HW242795   7.011   0.663   3.346 -1.3139  0.7609 -1.5777
13181SOL     OW42796   0.350   0.184   0.902  0.3613  0.3726  0.3529
13181SOL    HW142797   0.359   0.194   1.001  0.7660  0.5120  0.2995
13181SOL    HW242798   0.260   0.146   0.881  0.3959  0.0382  0.7969
13182SOL     OW42799   2.637   3.927   1.529  0.0545 -0.2821  0.5440
13182SOL    HW142800   2.566   3.862   1.503 -0.7721  0.0000  2.0445
13182SOL    HW242801   2.666   3.979   1.449 -2.0427  0.1900  0.0726
13183SOL     OW42802   2.630   3.732   1.121  0.3751 -0.3897  0.3574
13183SOL    HW142803   2.598   3.809   1.176  0.3159 -1.2272  1.5140
13183SOL    HW242804   2.607   3.646   1.167 -0.5931 -1.1504 -1.4548
13184SOL     OW42805   3.390  10.000   2.730 -0.4647  0.0242 -0.1943
13184SOL    HW142806   3.453  10.064   2.775 -1.6562 -1.2541  3.4844
13184SOL    HW242807   3.438   9.914   2.712  0.2752  0.8527 -2.3115
13185SOL     OW42808   9.373   5.595   1.491 -0.4031  0.4403  0.2987
13185SOL    HW142809   9.469   5.581   1.465 -0.2972  1.2465  0.2403
13185SOL    HW242810   9.336   5.511   1.529  0.3049  0.0963  0.2306
13189SOL     OW42811   3.002   7.651   0.072  0.9763 -0.5997  0.1455
13189SOL    HW142812   2.914   7.698   0.082  0.9661 -0.2484 -1.3675
13189SOL    HW242813   3.066   7.684   0.142  1.0984  2.0391 -1.1370
13190SOL     OW42814   9.060   7.638   1.391  0.1014 -0.5089 -0.3974
13190SOL    HW142815   9.074   7.635   1.292 -0.8869 -0.1607 -0.5520
13190SOL    HW242816   9.000   7.563   1.419 -3.8296  2.3075 -0.7948
13191SOL     OW42817   3.437   0.985   0.613  0.5637 -0.4429  0.0426
13191SOL    HW142818   3.398   1.059   0.669  1.0252 -1.8529  2.3095
13191SOL    HW242819   3.525   0.958   0.652  0.7016 -1.7455 -1.1464
13192SOL     OW42820   8.712   4.086   1.983 -0.1846  0.5664  0.2414
13192SOL    HW142821   8.783   4.080   1.913 -1.1859 -0.2639 -0.7261
13192SOL    HW242822   8.654   4.166   1.966 -2.0212 -1.0693 -1.4410
13193SOL     OW42823   0.395   8.569   0.803  0.3477 -0.3795  0.0716
13193SOL    HW142824   0.445   8.652   0.829  0.2580 -1.4571  4.0355
13193SOL    HW242825   0.298   8.592   0.793  0.5682  0.3143 -0.5639
13194SOL     OW42826   7.714   1.646   4.386  0.2075 -0.3562 -0.2900
13194SOL    HW142827   7.676   1.591   4.312  1.4927 -1.6778  0.0100
13194SOL    HW242828   7.695   1.600   4.474 -0.8122  0.9091  0.1645
13195SOL     OW42829   2.016   3.601   2.523  0.2665 -0.2131 -0.4541
13195SOL    HW142830   2.110   3.631   2.512  0.1985 -0.1906 -1.0050
13195SOL    HW242831   1.967   3.665   2.582  0.4250  0.1330 -0.6960
13197SOL     OW42832   2.971   2.381   2.289 -0.0516 -0.1206 -0.2541
13197SOL    HW142833   2.917   2.455   2.330  0.1653  1.3246 -2.5100
13197SOL    HW242834   2.910   2.321   2.237  0.2234  0.2661 -1.0172
13198SOL     OW42835   9.345   7.796   4.075  0.2780  0.2128  0.1092
13198SOL    HW142836   9.331   7.726   4.144  1.2772  1.0284  1.1496
13198SOL    HW242837   9.416   7.767   4.011  0.7124  0.2930  0.5582
13199SOL     OW42838   1.895   1.321   0.472 -0.0541  0.4090 -0.4441
13199SOL    HW142839   1.858   1.281   0.556  0.2584  1.0245 -0.0066
13199SOL    HW242840   1.889   1.254   0.398  1.7636 -0.9667  0.5915
13201SOL     OW42841   5.483   7.454   2.506  0.2347 -0.6571  0.3773
13201SOL    HW142842   5.385   7.443   2.493 -0.2086  1.3601  1.6601
13201SOL    HW242843   5.500   7.496   2.596  2.1050  0.9739 -0.6821
13202SOL     OW42844   9.213   5.140   0.309 -0.0576  0.5791 -0.1881
13202SOL    HW142845   9.224   5.048   0.273 -0.4935 -0.3769  2.0399
13202SOL    HW242846   9.154   5.137   0.390  0.7712  2.6668  0.5197
13203SOL     OW42847   5.830   3.598   0.030 -0.1289  0.5735 -0.0842
13203SOL    HW142848   5.825   3.531   0.104 -2.4520  0.9598  0.1539
13203SOL    HW242849   5.740   3.640   0.017  0.4786  1.2058 -2.5021
13206SOL     OW42850   8.608   2.643   0.142 -0.0102  0.1102 -0.3369
13206SOL    HW142851   8.526   2.607   0.188  1.0876 -2.2372 -0.1317
13206SOL    HW242852   8.624   2.591   0.059  0.9971  0.9002 -0.6373
13207SOL     OW42853   1.574   1.436   0.748  0.7127  0.6410  0.6958
13207SOL    HW142854   1.583   1.427   0.649  0.8063  0.3539  0.7292
13207SOL    HW242855   1.504   1.504   0.769  2.0121  2.0633  0.4352
13208SOL     OW42856   3.622   7.176   2.369 -0.3975  0.2646  0.1912
13208SOL    HW142857   3.683   7.107   2.331 -0.3978  0.1499  0.3988
13208SOL    HW242858   3.527   7.153   2.345 -0.5750 -0.8773  1.9140
13210SOL     OW42859   0.324   1.166   2.514 -0.1420 -0.0091  0.2994
13210SOL    HW142860   0.369   1.249   2.481 -0.8334  0.9070  1.6368
13210SOL    HW242861   0.385   1.087   2.498  1.5810  1.0947  1.2913
13211SOL     OW42862   7.247   8.546   2.934  0.0025 -0.0828 -0.4943
13211SOL    HW142863   7.309   8.497   2.994 -0.8527 -0.0338  0.4419
13211SOL    HW242864   7.242   8.642   2.962  2.3835  0.8021 -2.8847
13212SOL     OW42865   8.034   2.377   2.416  0.0851  0.6067  0.1026
13212SOL    HW142866   8.031   2.467   2.371 -1.1822  1.4192  1.7446
13212SOL    HW242867   8.032   2.390   2.515 -0.7115 -1.2561  0.3455
13213SOL     OW42868   0.932   0.400   1.713 -1.0287  0.5246 -0.7001
13213SOL    HW142869   0.918   0.409   1.812  1.0111  0.7403 -0.4136
13213SOL    HW242870   0.870   0.461   1.664 -0.2677  2.3297  0.5464
13214SOL     OW42871   4.167   6.247   2.323  0.7105  0.5807  0.0212
13214SOL    HW142872   4.204   6.194   2.246 -1.0112  1.3501 -1.3644
13214SOL    HW242873   4.223   6.230   2.404  0.6547 -2.8080 -0.5493
13217SOL     OW42874   8.381   4.444   4.212  0.0581  0.1155  0.4430
13217SOL    HW142875   8.447   4.382   4.169 -0.0092 -0.4189  1.1003
13217SOL    HW242876   8.422   4.535   4.219  0.4973 -0.0655  0.2901
13218SOL     OW42877   2.240   3.419   0.950  0.3969 -0.2175 -0.6289
13218SOL    HW142878   2.172   3.406   0.878 -0.4559  0.3126  0.0748
13218SOL    HW242879   2.309   3.484   0.919 -0.1825  0.3141 -0.8244
13219SOL     OW42880   4.011   3.718   1.933 -0.6494 -0.0842 -0.6453
13219SOL    HW142881   3.987   3.691   1.840  1.4634  1.3286 -1.6461
13219SOL    HW242882   4.011   3.818   1.941 -0.4887 -0.1798  0.7708
13221SOL     OW42883   6.120   0.314   1.894  0.1428  0.1980  0.2638
13221SOL    HW142884   6.146   0.218   1.907 -0.4574  0.1566  1.1704
13221SOL    HW242885   6.060   0.343   1.969  1.1887  1.5935  0.5801
13224SOL     OW42886   2.673   4.380   1.180  0.0509  0.0984  0.4546
13224SOL    HW142887   2.732   4.409   1.255  0.4096 -2.2601  1.1218
13224SOL    HW242888   2.580   4.368   1.213 -0.3262  1.4425 -0.0606
13225SOL     OW42889   8.568   9.357   1.270  0.2186 -0.3387 -0.1144
13225SOL    HW142890   8.556   9.371   1.172 -0.0379 -0.1749 -0.0607
13225SOL    HW242891   8.663   9.374   1.294 -0.4117  3.0398  0.2111
13226SOL     OW42892   7.215   0.360   1.005  0.8170  0.1563 -0.0996
13226SOL    HW142893   7.192   0.439   0.947 -1.1345 -0.1283  0.2375
13226SOL    HW242894   7.252   0.392   1.092 -0.5656  0.7384  0.2878
13228SOL     OW42895   8.842   9.372   1.367  0.2161 -0.1549 -0.5351
13228SOL    HW142896   8.818   9.316   1.446 -1.2511  0.8169 -0.2753
13228SOL    HW242897   8.923   9.427   1.388  0.5090 -0.7389 -0.1205
13229SOL     OW42898   9.474   2.087   2.114  0.1995  0.0973  0.4964
13229SOL    HW142899   9.491   2.169   2.169 -0.2769 -0.2307  1.1333
13229SOL    HW242900   9.405   2.030   2.159 -0.9382  0.3241 -0.9541
13230SOL     OW42901   4.270   2.635   3.506  0.4668 -0.7066  0.4257
13230SOL    HW142902   4.191   2.691   3.528 -0.2536 -0.4532 -2.6447
13230SOL    HW242903   4.341   2.692   3.463  1.5669 -1.2924  1.4275
13231SOL     OW42904   9.251   5.193   0.646  0.2351 -0.3269 -0.7791
13231SOL    HW142905   9.245   5.217   0.742  2.7562 -0.0433 -0.6714
13231SOL    HW242906   9.170   5.141   0.620 -0.8133  0.2120  1.2948
13232SOL     OW42907   0.694   9.936   2.460 -0.0330 -0.2662 -0.1932
13232SOL    HW142908   0.694  10.033   2.434  0.8938 -0.3185 -0.4265
13232SOL    HW242909   0.668   9.881   2.381 -2.4789 -0.1018  0.4601
13234SOL     OW42910   2.375   5.826   2.974 -0.0104  0.2341 -0.4676
13234SOL    HW142911   2.353   5.793   2.882  0.4893  0.4216 -0.6519
13234SOL    HW242912   2.473   5.816   2.991  0.0839  1.2593 -0.3753
13236SOL     OW42913   5.118   9.419   2.740 -0.1338 -0.2841  0.3713
13236SOL    HW142914   5.159   9.356   2.674 -0.7854  0.2732 -0.5711
13236SOL    HW242915   5.124   9.380   2.832  0.9225 -0.9922  0.0105
13237SOL     OW42916   3.806   3.887   1.569  0.2613 -0.1789 -0.5232
13237SOL    HW142917   3.753   3.917   1.489  1.5396  2.4979 -0.4326
13237SOL    HW242918   3.783   3.945   1.647  2.8981  0.7451 -0.3698
13239SOL     OW42919   8.793   0.874   4.048 -0.0063  0.0962 -0.7443
13239SOL    HW142920   8.872   0.918   4.007 -0.8371  0.4148 -2.0514
13239SOL    HW242921   8.777   0.786   4.004 -0.5182  0.1382 -0.6523
13240SOL     OW42922   3.087   2.596   0.323 -0.0298  0.2787  0.1751
13240SOL    HW142923   3.062   2.564   0.415  1.8211  0.7263  0.8439
13240SOL    HW242924   3.064   2.693   0.314  0.3700  0.3946  0.3890
13241SOL     OW42925   2.013   9.864   0.091  0.0502 -0.2346 -0.1196
13241SOL    HW142926   2.035   9.862   0.188 -2.7542  0.8920  0.5864
13241SOL    HW242927   2.022   9.772   0.053  0.9723 -0.7206  1.2268
13242SOL     OW42928   7.823   5.564   0.125  0.1234  0.2328 -0.1081
13242SOL    HW142929   7.854   5.639   0.184  1.2719  0.2718 -0.7601
13242SOL    HW242930   7.731   5.537   0.153  0.0066  1.3542  0.6477
13243SOL     OW42931   1.880   2.683   4.182 -0.2864  0.1127  0.6397
13243SOL    HW142932   1.917   2.706   4.272 -2.6964  1.8837  1.2057
13243SOL    HW242933   1.781   2.697   4.181 -0.3765 -0.3652 -2.1539
13244SOL     OW42934   1.683   8.802   3.348  0.3798 -0.3204  0.2285
13244SOL    HW142935   1.620   8.830   3.275  0.9058  1.1646  0.3237
13244SOL    HW242936   1.630   8.776   3.429 -0.1522 -0.5077 -0.1693
13245SOL     OW42937   6.541   9.777   4.036 -0.0005 -0.4677 -0.3959
13245SOL    HW142938   6.605   9.719   3.986 -1.4099 -0.6765 -1.9987
13245SOL    HW242939   6.503   9.725   4.113  1.0233 -0.6478 -0.0007
13246SOL     OW42940   1.834   3.497   3.618  0.3298  0.0224 -0.4995
13246SOL    HW142941   1.751   3.514   3.673  0.1406  1.0358 -1.0831
13246SOL    HW242942   1.811   3.440   3.540  0.0395  0.8684 -1.0364
13247SOL     OW42943   9.257   8.211   2.114 -0.5313  0.1569 -0.6262
13247SOL    HW142944   9.246   8.115   2.138 -2.6920  0.4098 -0.4745
13247SOL    HW242945   9.168   8.249   2.087  0.7164  1.4769 -3.0915
13249SOL     OW42946   0.106   1.108   3.870  0.1003 -0.0937 -0.1536
13249SOL    HW142947   0.168   1.138   3.798  1.0739  0.7172  0.9995
13249SOL    HW242948   0.060   1.188   3.910  0.4100 -0.4266  0.8806
13250SOL     OW42949   9.555   2.314   2.571 -0.1986 -0.0828 -0.3995
13250SOL    HW142950   9.647   2.280   2.592 -0.1592 -0.3426 -0.9667
13250SOL    HW242951   9.488   2.266   2.628 -0.0854 -0.6978 -0.7848
13251SOL     OW42952   4.743   0.200   3.989 -0.0910  0.1064  0.3697
13251SOL    HW142953   4.685   0.202   4.070  0.0914 -0.5488  0.5199
13251SOL    HW242954   4.734   0.111   3.943  1.4833 -0.3478  0.9020
13252SOL     OW42955   0.397   1.848   1.978  0.6292 -0.1287 -0.0703
13252SOL    HW142956   0.390   1.943   1.948  0.4308  0.6875  2.4695
13252SOL    HW242957   0.492   1.817   1.972  0.8731  0.5780  0.1553
13254SOL     OW42958   6.326   7.328   3.345 -0.0459  0.1213  0.3723
13254SOL    HW142959   6.330   7.415   3.395  1.3964  0.0339  0.4507
13254SOL    HW242960   6.358   7.254   3.404  0.3740 -0.1877 -0.2307
13255SOL     OW42961   3.711   8.123   1.507 -0.5721  0.2028  0.3661
13255SOL    HW142962   3.771   8.154   1.581 -0.2280  2.6174 -0.8750
13255SOL    HW242963   3.617   8.119   1.540 -0.2720  0.2686  1.2391
13256SOL     OW42964   9.720   7.939   0.131 -0.0744 -0.2171  0.3221
13256SOL    HW142965   9.750   7.877   0.204 -1.1340  2.2289  2.9621
13256SOL    HW242966   9.637   7.902   0.089  1.4580 -2.4671 -0.8078
13257SOL     OW42967   2.048   8.755   1.143 -0.4261 -0.7210 -0.0372
13257SOL    HW142968   2.141   8.766   1.178 -0.2954 -0.1906 -0.5480
13257SOL    HW242969   1.982   8.782   1.214 -0.2517 -3.0729  1.0641
13258SOL     OW42970   8.519   0.849   1.591 -0.5364 -0.0054  0.7045
13258SOL    HW142971   8.535   0.836   1.689 -1.2375 -0.3443  0.7840
13258SOL    HW242972   8.506   0.946   1.572  2.5033  0.3772  0.4752
13259SOL     OW42973   9.940   7.711   0.971 -0.0212 -0.0521 -0.2708
13259SOL    HW142974   9.981   7.621   0.985  0.0742 -0.3847 -2.5506
13259SOL    HW242975  10.012   7.780   0.973  0.0704 -0.1564  0.1669
13260SOL     OW42976   2.827   6.225   3.072  0.2215 -0.8231 -0.6729
13260SOL    HW142977   2.770   6.144   3.062  0.5172 -0.9829 -1.0538
13260SOL    HW242978   2.786   6.301   3.022 -0.4029 -0.5562  0.2246
13261SOL     OW42979   1.509   7.759   1.595  0.9064 -0.1939 -0.3792
13261SOL    HW142980   1.483   7.714   1.509 -0.7425  0.2779 -0.1406
13261SOL    HW242981   1.463   7.847   1.601  1.6820  0.1455  0.6039
13262SOL     OW42982   3.043   0.624   2.486 -0.0555 -0.3140  0.4282
13262SOL    HW142983   3.060   0.645   2.582 -0.3502 -0.4864  0.5169
13262SOL    HW242984   2.985   0.543   2.479 -0.6521  0.1354  0.1158
13263SOL     OW42985   2.836   7.076   1.280 -0.1875  0.0507 -0.3522
13263SOL    HW142986   2.885   7.116   1.203  0.0639  0.6675  0.1184
13263SOL    HW242987   2.748   7.040   1.249 -0.2513  0.6339 -0.8560
13264SOL     OW42988   1.698   4.825   3.170 -0.7802 -0.9930  0.4919
13264SOL    HW142989   1.742   4.901   3.122 -2.7097 -0.4055 -0.4057
13264SOL    HW242990   1.740   4.814   3.260  0.5807  0.1011  0.0246
13266SOL     OW42991   7.629   9.038   2.840  0.2548 -0.2586 -0.5891
13266SOL    HW142992   7.666   9.035   2.748 -0.5978 -1.9878 -0.8982
13266SOL    HW242993   7.604   8.945   2.869 -1.4153  0.5172  0.5620
13267SOL     OW42994   4.257   9.903   3.245 -0.3470 -0.6521 -0.4914
13267SOL    HW142995   4.206   9.972   3.296  0.5652  0.8682 -1.6043
13267SOL    HW242996   4.199   9.862   3.175 -0.4986 -0.0414 -0.7227
13270SOL     OW42997   5.704   6.670   2.281 -0.1707 -0.2385 -0.2849
13270SOL    HW142998   5.783   6.646   2.337 -0.0736 -0.4783 -0.5244
13270SOL    HW242999   5.635   6.599   2.288  0.5314 -1.1053 -1.7846
13271SOL     OW43000   1.261   3.920   0.676  0.1640  0.4638 -0.3561
13271SOL    HW143001   1.282   3.847   0.741 -1.1605  1.5841  1.3843
13271SOL    HW243002   1.167   3.908   0.643  0.0089  1.2825 -0.2047
13273SOL     OW43003   3.662   7.788   2.029 -0.3507 -0.0009 -0.3224
13273SOL    HW143004   3.688   7.883   2.042 -0.1055 -0.3567  1.8832
13273SOL    HW243005   3.601   7.781   1.950 -0.9429  2.0798 -0.0722
13274SOL     OW43006   9.553   3.467   2.324  0.0802  0.2155  0.0203
13274SOL    HW143007   9.469   3.511   2.291 -0.1198  0.1764  0.4721
13274SOL    HW243008   9.549   3.370   2.304 -0.4161  0.0442  0.8890
13276SOL     OW43009   1.207   6.057   0.526  0.1070 -0.3124  0.4633
13276SOL    HW143010   1.193   6.110   0.442 -0.8806 -0.6146  0.4446
13276SOL    HW243011   1.215   5.960   0.504 -0.4437 -0.4235  0.7495
13277SOL     OW43012   3.333   4.668   2.083 -0.2059 -0.4921 -0.0900
13277SOL    HW143013   3.411   4.723   2.112  0.1621 -0.1606 -1.6590
13277SOL    HW243014   3.258   4.680   2.147  0.5460  0.3047  0.6483
13278SOL     OW43015   9.608   1.281   2.667  0.1668 -0.2120  0.0648
13278SOL    HW143016   9.595   1.294   2.568 -1.7630  2.9990  0.6681
13278SOL    HW243017   9.532   1.227   2.703 -0.9371  1.4409  0.2871
13279SOL     OW43018   4.958   0.017   2.475 -0.0989 -0.8005  0.0899
13279SOL    HW143019   4.949   0.117   2.485  0.5229 -0.7488  0.1216
13279SOL    HW243020   4.964  -0.025   2.565 -0.7826 -0.9063  0.0873
13281SOL     OW43021   8.475   9.804   3.974  0.0494  0.1254 -0.1167
13281SOL    HW143022   8.519   9.718   3.947  0.2957  0.1395  0.2403
13281SOL    HW243023   8.405   9.827   3.906 -0.8455 -0.9761  0.4041
13282SOL     OW43024   3.888   7.893   0.553 -0.5042  0.0368  0.2492
13282SOL    HW143025   3.803   7.852   0.586 -0.7836  1.1711  0.9886
13282SOL    HW243026   3.883   7.992   0.563  1.7904 -0.0035  2.5318
13283SOL     OW43027   9.931   5.562   0.361  0.2219 -0.3579  0.6422
13283SOL    HW143028   9.858   5.561   0.429  0.4963  1.8211  1.0281
13283SOL    HW243029   9.975   5.653   0.361  1.2229 -0.8095 -1.3757
13284SOL     OW43030   1.508   4.350   2.159 -0.1571 -0.0603  0.2909
13284SOL    HW143031   1.502   4.372   2.061  1.0309 -0.0782  0.2092
13284SOL    HW243032   1.434   4.396   2.208 -1.5126 -1.0545 -0.7911
13285SOL     OW43033   4.532   5.511   2.038  0.1691  0.6156 -0.6442
13285SOL    HW143034   4.486   5.492   1.951  2.7803  0.5256 -2.0772
13285SOL    HW243035   4.510   5.603   2.068 -2.9299 -0.2922  0.0481
13288SOL     OW43036   3.087   2.588   2.085  0.5213  0.9522  0.4591
13288SOL    HW143037   2.988   2.598   2.088  0.4485  1.3027 -2.2366
13288SOL    HW243038   3.122   2.580   2.179 -1.9958  1.0762  1.4602
13289SOL     OW43039   7.950   6.615   4.192 -0.1658  0.5753 -0.4601
13289SOL    HW143040   7.964   6.575   4.283  0.5823  1.9846  0.0625
13289SOL    HW243041   7.907   6.548   4.132 -2.2672  0.1866  1.4258
13290SOL     OW43042   2.154   7.425   1.094  0.3714 -0.2827 -0.4837
13290SOL    HW143043   2.130   7.488   1.020  0.5280 -1.0435 -1.1856
13290SOL    HW243044   2.078   7.421   1.160  0.6413  1.1539 -0.0772
13292SOL     OW43045   4.109   0.641   3.139 -0.1890 -0.4256 -0.5588
13292SOL    HW143046   4.204   0.669   3.153 -0.3805  1.1619 -2.1758
13292SOL    HW243047   4.052   0.681   3.211  0.1079  0.2274 -0.6772
13294SOL     OW43048   1.025   5.861   2.862  0.5108 -0.1793  0.0704
13294SOL    HW143049   1.120   5.864   2.894 -0.1679  0.5410  2.1459
13294SOL    HW243050   0.971   5.928   2.913 -1.0564 -0.3833 -1.2828
13296SOL     OW43051   1.612   4.078   2.741 -0.2303 -0.0458  0.2550
13296SOL    HW143052   1.685   4.102   2.806  0.6594 -0.2886 -0.6443
13296SOL    HW243053   1.639   4.107   2.649 -2.0330  1.4287  0.1696
13300SOL     OW43054   3.852   9.995   1.047 -0.0306  0.1311 -0.0398
13300SOL    HW143055   3.925   9.996   1.115 -0.0250  0.9540 -0.0577
13300SOL    HW243056   3.808  10.084   1.044 -0.9268 -0.3051 -0.1485
13301SOL     OW43057   1.600   3.095   1.110  0.2857  0.2759  0.2233
13301SOL    HW143058   1.535   3.037   1.160 -0.3228  2.0039  1.5128
13301SOL    HW243059   1.654   3.039   1.048  0.7972 -1.8944  2.5474
13304SOL     OW43060   0.251   5.435   3.260 -0.1763  0.1940 -0.1815
13304SOL    HW143061   0.243   5.534   3.245 -1.8534 -0.0624 -0.9662
13304SOL    HW243062   0.216   5.386   3.181 -0.4428 -1.0561  0.7055
13305SOL     OW43063   3.491   7.803   3.900 -0.6452  0.1107 -0.1088
13305SOL    HW143064   3.424   7.776   3.968 -0.4065  1.0425  0.5063
13305SOL    HW243065   3.465   7.891   3.860 -0.7663 -0.4086 -1.1992
13306SOL     OW43066   9.516   6.832   4.081 -0.4933  0.1572 -0.5170
13306SOL    HW143067   9.551   6.829   3.988 -1.4915  0.6302 -0.9243
13306SOL    HW243068   9.504   6.928   4.109  1.0396  0.0404  0.5809
13308SOL     OW43069   7.801   0.348   0.606  0.0692 -0.6412 -0.1095
13308SOL    HW143070   7.889   0.354   0.560 -0.1774  0.4789 -0.4536
13308SOL    HW243071   7.812   0.304   0.696  1.5382  2.4058  1.2618
13309SOL     OW43072   9.901   4.780   4.039 -0.4893 -0.2133 -0.1222
13309SOL    HW143073   9.930   4.772   3.943 -1.2258 -0.1219 -0.3580
13309SOL    HW243074   9.978   4.758   4.099 -0.0278 -0.2997 -0.7361
13310SOL     OW43075   0.581   4.184   1.983  0.2010  0.1284 -0.0419
13310SOL    HW143076   0.594   4.201   1.885  1.0529 -3.9038 -0.7204
13310SOL    HW243077   0.483   4.174   2.002  0.1586 -1.0715 -0.8634
13311SOL     OW43078   3.917   2.168   4.154  0.0316  0.2017 -0.3339
13311SOL    HW143079   3.994   2.165   4.217 -0.4859  1.0567  0.3523
13311SOL    HW243080   3.945   2.214   4.069 -0.1642  2.0484  0.5661
13312SOL     OW43081   7.635   7.963   2.032  0.5111 -0.0902 -0.4612
13312SOL    HW143082   7.677   8.027   2.096  0.5145 -0.4193 -0.1300
13312SOL    HW243083   7.637   7.871   2.071 -0.4639 -0.1197 -0.4630
13313SOL     OW43084   4.865   2.041   3.680 -0.5675 -0.4489  0.2888
13313SOL    HW143085   4.882   1.973   3.608 -0.9658 -0.2611  0.0164
13313SOL    HW243086   4.811   1.999   3.753  0.0346 -0.7067  0.5937
13316SOL     OW43087   2.410   3.625   0.903  0.3024 -0.1126 -0.4777
13316SOL    HW143088   2.394   3.691   0.977 -0.9650 -0.8883 -0.0349
13316SOL    HW243089   2.501   3.638   0.865  0.5249  1.0694  0.4459
13317SOL     OW43090   9.012   1.554   4.412  0.3415 -0.1008 -0.5226
13317SOL    HW143091   9.013   1.511   4.502 -0.0752 -0.0054 -0.4746
13317SOL    HW243092   8.957   1.499   4.349 -0.2451  0.4003 -0.4431
13318SOL     OW43093   8.381   2.740   3.306 -0.1396 -0.1027 -0.6018
13318SOL    HW143094   8.418   2.650   3.287  1.5019  0.7003 -1.2528
13318SOL    HW243095   8.386   2.758   3.405 -0.5179 -0.7292 -0.4641
13319SOL     OW43096   4.628   9.984   0.582  0.3814 -0.0804  0.5109
13319SOL    HW143097   4.642   9.899   0.634  0.9989  1.6892  3.3342
13319SOL    HW243098   4.717  10.025   0.561  0.0654  0.1806 -0.3200
13320SOL     OW43099   4.858   2.385   1.559 -0.4639 -0.2454 -0.0010
13320SOL    HW143100   4.907   2.469   1.582  0.8014 -1.0135  0.1262
13320SOL    HW243101   4.760   2.404   1.556 -0.1796  1.2788 -0.1544
13321SOL     OW43102   2.660   5.895   3.311  0.6450  0.1688 -1.4860
13321SOL    HW143103   2.697   5.803   3.297 -0.5695 -0.5947  0.2268
13321SOL    HW243104   2.712   5.942   3.382 -1.7598 -1.0344  1.1811
13322SOL     OW43105   9.279   4.113   2.129  0.2198  0.0991 -0.0086
13322SOL    HW143106   9.344   4.150   2.196  0.7921 -0.7497 -0.0822
13322SOL    HW243107   9.255   4.019   2.155 -0.9481  0.3927 -0.0113
13323SOL     OW43108   6.200   4.085   0.021  0.6225  0.2705 -0.2200
13323SOL    HW143109   6.287   4.082  -0.030  1.6108  0.4323  1.4258
13323SOL    HW243110   6.130   4.034  -0.029  1.6622  0.1306 -1.5639
13324SOL     OW43111   3.803   0.647   3.589 -0.2771 -0.3967 -0.6254
13324SOL    HW143112   3.724   0.607   3.635  0.1902 -0.5753  0.0367
13324SOL    HW243113   3.861   0.692   3.657  1.3378 -2.2017 -0.7622
13325SOL     OW43114   8.930   8.073   1.145  0.2735 -0.1232  0.1313
13325SOL    HW143115   8.938   8.018   1.229  1.1590  0.2212  0.2775
13325SOL    HW243116   8.841   8.055   1.102 -0.1418 -0.3871  1.0818
13327SOL     OW43117   1.740   4.360   3.177 -0.2207 -0.5517 -0.6146
13327SOL    HW143118   1.720   4.443   3.124 -0.6805 -1.1946 -1.4549
13327SOL    HW243119   1.733   4.380   3.275  1.0239  0.7515 -0.7733
13328SOL     OW43120   4.282   0.561   1.103 -0.4174 -1.2540  0.1347
13328SOL    HW143121   4.303   0.659   1.098  1.1836 -1.6297 -0.7144
13328SOL    HW243122   4.299   0.528   1.196 -1.3133 -0.6604  0.5181
13329SOL     OW43123   0.922   1.019   0.547 -0.0596 -0.2157  0.1628
13329SOL    HW143124   0.932   1.070   0.462 -0.2980  0.0010  0.2636
13329SOL    HW243125   0.831   0.976   0.550 -0.4196  0.5694  0.7366
13330SOL     OW43126   6.695   0.452   3.585  0.6343 -0.5053 -0.5258
13330SOL    HW143127   6.777   0.509   3.588  0.8193 -0.8254  0.7970
13330SOL    HW243128   6.686   0.403   3.672 -0.2291 -1.4901 -1.1678
13332SOL     OW43129   1.309   5.155   3.496  0.2063 -0.3155  0.5894
13332SOL    HW143130   1.249   5.117   3.566 -1.4456 -0.6430 -0.9490
13332SOL    HW243131   1.309   5.095   3.416  2.5516 -0.2669  0.5361
13334SOL     OW43132   4.206   2.447   3.730 -0.7448 -0.2964  0.0744
13334SOL    HW143133   4.169   2.522   3.785  1.2440  0.1840  0.7680
13334SOL    HW243134   4.224   2.480   3.637 -0.3147 -0.0440  0.2476
13335SOL     OW43135   3.283   8.179   3.009  0.2607 -0.0327 -0.0634
13335SOL    HW143136   3.259   8.091   3.050 -0.7368  0.4238  0.3511
13335SOL    HW243137   3.356   8.222   3.063 -1.6006  0.9343  1.7584
13338SOL     OW43138   0.821   9.261   1.706 -0.1386 -0.5308 -0.3356
13338SOL    HW143139   0.742   9.220   1.659 -0.6387 -1.4227  1.2311
13338SOL    HW243140   0.824   9.359   1.686 -0.5932 -0.8123 -1.8537
13341SOL     OW43141   5.700   8.077   1.302  0.1765  0.1009 -0.5507
13341SOL    HW143142   5.628   8.009   1.290 -0.2695  0.4789 -0.0165
13341SOL    HW243143   5.687   8.152   1.238 -1.0064  1.0966  0.8158
13342SOL     OW43144   2.796   8.633   2.332 -0.4470  0.6831 -0.5566
13342SOL    HW143145   2.729   8.660   2.402  1.8224  0.3216  1.8312
13342SOL    HW243146   2.824   8.713   2.280  0.4826  1.6334  1.3451
13343SOL     OW43147   2.147   3.433   3.418  0.2916  0.2141  0.4778
13343SOL    HW143148   2.110   3.519   3.452  0.5191 -0.0674  1.4698
13343SOL    HW243149   2.237   3.416   3.460  0.5578 -0.1689 -0.2357
13344SOL     OW43150   4.542   9.830   3.692  0.3190 -0.7028 -0.1595
13344SOL    HW143151   4.486   9.856   3.614  2.0653 -1.8143 -1.8375
13344SOL    HW243152   4.498   9.754   3.740 -1.3900  0.8115  0.7167
13345SOL     OW43153   5.563   0.157   2.862 -0.0810 -0.4274 -0.2480
13345SOL    HW143154   5.516   0.160   2.950  2.3384  0.0989  1.0672
13345SOL    HW243155   5.628   0.081   2.861  0.5086  0.0719 -1.2592
13347SOL     OW43156   2.121   9.381   4.004  0.0676 -0.0944  0.2830
13347SOL    HW143157   2.221   9.375   4.015 -0.1542  0.1352  2.7933
13347SOL    HW243158   2.096   9.471   3.970  0.5659  0.7889  2.1775
13348SOL     OW43159   0.381   9.438   2.232  0.0056  0.2875  0.2231
13348SOL    HW143160   0.286   9.437   2.263  0.3778 -4.6654  1.7093
13348SOL    HW243161   0.385   9.440   2.132 -1.7666 -1.6249  0.0914
13349SOL     OW43162   5.734   8.121   2.088 -0.1367 -0.3252  0.4463
13349SOL    HW143163   5.642   8.083   2.079 -1.0553  1.8080  0.3542
13349SOL    HW243164   5.731   8.219   2.067  2.0116 -0.0756  1.2186
13350SOL     OW43165   9.231   5.200   4.354  0.0578 -0.5006 -0.7700
13350SOL    HW143166   9.291   5.134   4.400 -0.2187 -0.1686  0.0910
13350SOL    HW243167   9.266   5.293   4.371 -1.7873 -0.1501  1.4556
13351SOL     OW43168   1.977   7.717   3.736 -0.5395  0.8594 -0.3433
13351SOL    HW143169   1.922   7.741   3.816  0.3871 -0.1728  0.6277
13351SOL    HW243170   2.059   7.774   3.733  0.8461 -0.9692  1.0609
13352SOL     OW43171   5.053   6.391   2.440 -0.1928 -0.4339  0.6865
13352SOL    HW143172   5.128   6.386   2.375 -0.2586  0.9046  0.4834
13352SOL    HW243173   5.082   6.442   2.521 -0.2046 -1.8250  1.5937
13353SOL     OW43174   0.973   6.179   1.742  0.5319 -0.0723 -0.4070
13353SOL    HW143175   1.059   6.213   1.780 -0.6659 -0.1364  2.5201
13353SOL    HW243176   0.992   6.117   1.667  3.1046 -1.1164  1.0497
13356SOL     OW43177   3.097   1.239   1.752 -0.0962  0.0113 -0.0105
13356SOL    HW143178   3.017   1.214   1.806  0.5647 -1.8201  0.1360
13356SOL    HW243179   3.156   1.300   1.806 -0.6286  0.1279  0.4432
13357SOL     OW43180   7.380   1.472   0.576 -0.1436 -0.5787 -0.3870
13357SOL    HW143181   7.320   1.444   0.651 -0.0544  0.2533  0.0052
13357SOL    HW243182   7.328   1.473   0.491 -0.5206 -0.5082 -0.1605
13358SOL     OW43183   0.159   7.086   2.193 -0.1208 -0.3788 -0.2096
13358SOL    HW143184   0.175   7.182   2.170 -3.6426  1.0072  2.7475
13358SOL    HW243185   0.090   7.048   2.131 -1.8354  0.2949  1.2318
13359SOL     OW43186   8.701   3.730   4.041  0.3635  0.0761  0.2731
13359SOL    HW143187   8.758   3.788   4.099  1.2608  0.7590 -1.2516
13359SOL    HW243188   8.618   3.704   4.091  1.1765  0.5176  1.8952
13361SOL     OW43189   3.644   5.191   0.707  0.6195 -0.4582  0.2598
13361SOL    HW143190   3.563   5.248   0.719  1.6269  1.2695 -0.8917
13361SOL    HW243191   3.716   5.221   0.769 -0.0198 -2.8615  2.2558
13362SOL     OW43192   0.847   8.681   3.162 -0.1885  0.0378  0.1588
13362SOL    HW143193   0.851   8.709   3.259 -0.3510 -0.0662  0.1951
13362SOL    HW243194   0.768   8.622   3.148 -0.8737  1.0740 -0.3059
13363SOL     OW43195   8.756   4.677   2.216  0.4260  0.4547  0.8495
13363SOL    HW143196   8.740   4.681   2.315  1.3568 -1.2859  1.0914
13363SOL    HW243197   8.774   4.582   2.189 -2.1104  0.5719 -1.3790
13365SOL     OW43198   5.783   9.929   1.212 -0.3888  0.3896 -0.3937
13365SOL    HW143199   5.844  10.003   1.241 -1.7230  1.1625  0.5302
13365SOL    HW243200   5.768   9.866   1.289 -2.5430  1.4666  0.1042
13368SOL     OW43201   1.713   6.035   3.889 -0.6834  0.9542  0.1653
13368SOL    HW143202   1.771   5.965   3.848 -1.7968  0.3910 -0.4416
13368SOL    HW243203   1.633   6.051   3.832 -1.6805  0.9560  1.5422
13369SOL     OW43204   9.682   6.989   0.425  0.4213 -0.3271 -0.3997
13369SOL    HW143205   9.617   6.913   0.432  0.4838 -0.5459 -2.1123
13369SOL    HW243206   9.688   7.020   0.331  3.3678 -0.7946 -0.4206
13370SOL     OW43207   6.413   1.135   2.106  0.2810  0.5621  0.1618
13370SOL    HW143208   6.331   1.182   2.074 -1.3084 -0.2070  2.9434
13370SOL    HW243209   6.400   1.036   2.098  1.1772  0.4439  0.0865
13371SOL     OW43210   4.309   1.401   4.029  0.2150 -0.5194 -0.2892
13371SOL    HW143211   4.372   1.451   3.969  0.2533  0.2526  0.3885
13371SOL    HW243212   4.349   1.394   4.120  0.1679 -1.7187 -0.3413
13372SOL     OW43213   8.396   1.401   0.207 -0.0621  0.0662 -0.0437
13372SOL    HW143214   8.333   1.462   0.256  1.8017  0.6228  1.7316
13372SOL    HW243215   8.389   1.309   0.245  0.2951  0.1642  0.2647
13373SOL     OW43216   7.084   8.789   1.087  0.0552 -0.4388  0.1394
13373SOL    HW143217   7.124   8.768   1.176 -0.6029 -0.5365  0.4143
13373SOL    HW243218   7.088   8.708   1.028  1.1718 -0.1596 -0.1836
13374SOL     OW43219   6.309   9.762   2.771 -0.3278 -0.3701  0.4946
13374SOL    HW143220   6.388   9.738   2.714 -0.1086 -0.9667  1.0324
13374SOL    HW243221   6.300   9.694   2.843  1.2737  2.0358  3.0657
13375SOL     OW43222   9.021   6.833   3.960 -0.1448 -0.1857  0.1625
13375SOL    HW143223   9.038   6.896   4.035 -2.4607  0.6028  0.0312
13375SOL    HW243224   9.105   6.781   3.941  1.5038  2.1374  0.9004
13376SOL     OW43225   0.462   2.022   2.863  0.2690 -0.0605  0.2555
13376SOL    HW143226   0.441   1.925   2.856 -0.1172 -0.0780  1.5156
13376SOL    HW243227   0.416   2.072   2.790 -0.7017 -0.6349  0.4754
13377SOL     OW43228   8.939   2.586   2.201 -0.4264  0.2584 -0.2043
13377SOL    HW143229   8.976   2.608   2.110  1.7091  0.8031  0.7462
13377SOL    HW243230   8.889   2.500   2.197  4.0910 -2.5034 -0.8967
13379SOL     OW43231   9.616   4.823   3.796  0.4267  0.0411 -0.0417
13379SOL    HW143232   9.618   4.762   3.717  1.2736  0.0635 -0.0412
13379SOL    HW243233   9.580   4.773   3.875  3.4018 -1.2400  0.5859
13380SOL     OW43234   8.088   5.000   0.058  0.2038  0.6231  0.1161
13380SOL    HW143235   8.145   4.919   0.044 -0.1687  0.4619 -0.4943
13380SOL    HW243236   8.037   4.990   0.144 -1.4517 -0.7814 -0.9637
13381SOL     OW43237   8.911   7.362   0.936  0.4929  0.6112 -0.6113
13381SOL    HW143238   8.982   7.427   0.911  0.5211  0.2307 -1.5498
13381SOL    HW243239   8.871   7.322   0.853  0.6915 -0.7848 -0.0604
13382SOL     OW43240   2.629   8.797   2.633 -0.3165  0.0113  0.2809
13382SOL    HW143241   2.707   8.744   2.665  0.3651  1.2904  0.7627
13382SOL    HW243242   2.566   8.737   2.584  0.9298 -1.0470 -0.0529
13383SOL     OW43243   2.256   8.104   3.264 -0.0976 -0.3981  0.1555
13383SOL    HW143244   2.314   8.124   3.344 -0.0146 -0.4601  0.1116
13383SOL    HW243245   2.166   8.075   3.295  0.0792 -0.8602  0.2314
13385SOL     OW43246   7.167   0.996   3.340 -0.0447  0.3068 -0.1073
13385SOL    HW143247   7.161   1.096   3.336  2.5006  0.4627 -0.4996
13385SOL    HW243248   7.225   0.969   3.417  0.9211 -0.8083 -1.2092
13386SOL     OW43249   8.881   0.888   2.833  0.4898 -0.3045  0.2452
13386SOL    HW143250   8.847   0.972   2.875  0.4712 -0.2881  0.1976
13386SOL    HW243251   8.840   0.809   2.880 -0.6435 -0.2702 -0.6607
13387SOL     OW43252   0.242   1.322   0.442 -0.4056 -0.0275 -1.1992
13387SOL    HW143253   0.143   1.335   0.443 -0.3190  0.7770  2.5343
13387SOL    HW243254   0.263   1.233   0.401 -2.5954  0.0493 -2.5908
13388SOL     OW43255   9.566   6.910   2.597  0.2104  1.0618 -0.8444
13388SOL    HW143256   9.510   6.992   2.585 -0.5993  0.8125  1.0523
13388SOL    HW243257   9.561   6.854   2.514 -1.9382  1.2978 -0.9008
13389SOL     OW43258   2.834   8.680   2.805  0.4795 -0.2966 -0.3039
13389SOL    HW143259   2.905   8.669   2.875  0.8645  1.6063 -0.3728
13389SOL    HW243260   2.858   8.624   2.726  1.9564  0.3534 -0.3420
13391SOL     OW43261   9.827   4.224   1.381 -0.1001 -0.1522  0.6665
13391SOL    HW143262   9.828   4.207   1.479 -0.0695 -0.5328  0.6009
13391SOL    HW243263   9.849   4.320   1.363  2.0422 -0.5644  0.9239
13392SOL     OW43264   8.766   5.711   2.845  0.4140 -0.2082  0.0253
13392SOL    HW143265   8.743   5.712   2.748  0.7116  0.3587 -0.0429
13392SOL    HW243266   8.703   5.652   2.894 -0.4334  0.3863 -0.3404
13393SOL     OW43267   0.100   6.056   1.114 -0.2415 -0.0281  0.4995
13393SOL    HW143268   0.056   6.127   1.169  0.6649  0.5350  0.4927
13393SOL    HW243269   0.078   6.070   1.017  0.7432  0.8170  0.3978
13394SOL     OW43270   9.515   5.308   3.215  0.1439 -0.2953  0.4962
13394SOL    HW143271   9.433   5.364   3.217  0.7816  0.6690 -0.2193
13394SOL    HW243272   9.558   5.309   3.305  0.3254  0.6109  0.4009
13395SOL     OW43273   5.587   1.418   3.155  0.4696 -0.3604 -0.2942
13395SOL    HW143274   5.573   1.504   3.204 -0.0135  0.1142 -1.2530
13395SOL    HW243275   5.680   1.415   3.119  0.4033 -0.1129 -0.4911
13396SOL     OW43276   9.365   7.608   0.408 -0.1916  0.0993  0.3745
13396SOL    HW143277   9.395   7.631   0.501  1.9140 -0.2316 -0.1976
13396SOL    HW243278   9.347   7.510   0.402 -1.1276  0.2518  0.6428
13397SOL     OW43279   0.106   1.448   3.869 -0.4810  0.5617  0.4009
13397SOL    HW143280   0.164   1.434   3.949 -1.0634  0.3208  0.7908
13397SOL    HW243281   0.094   1.546   3.854 -0.5442  0.6086  0.7432
13399SOL     OW43282   9.060   2.054   0.312  0.3683 -0.5262 -0.5014
13399SOL    HW143283   9.046   2.066   0.410  0.2770 -0.5944 -0.5059
13399SOL    HW243284   9.129   2.119   0.279  1.5050 -1.5040 -0.1107
13400SOL     OW43285   4.474   0.771   0.766  0.4592  0.3701 -0.3412
13400SOL    HW143286   4.432   0.846   0.816 -0.5069  0.3386 -1.1002
13400SOL    HW243287   4.446   0.775   0.670  0.7532 -0.7027 -0.4786
13401SOL     OW43288   2.329   3.292   2.839  0.6009 -0.1454 -0.1162
13401SOL    HW143289   2.363   3.211   2.887  1.1802 -0.0054 -0.2861
13401SOL    HW243290   2.261   3.339   2.896 -0.5611 -1.3550 -0.4672
13402SOL     OW43291   2.266   0.769   1.994  0.3008  0.0850 -0.7138
13402SOL    HW143292   2.170   0.761   2.020  1.0088  1.6864  2.6150
13402SOL    HW243293   2.282   0.717   1.910 -3.1567 -1.3756 -0.5463
13403SOL     OW43294   2.122   2.628   2.888 -0.0695 -0.2717  0.2926
13403SOL    HW143295   2.183   2.563   2.934  0.4308  0.2338  0.3460
13403SOL    HW243296   2.158   2.648   2.797 -0.8634 -0.9915 -0.1829
13404SOL     OW43297   9.498   3.052   4.330 -0.0885  0.0207  0.5209
13404SOL    HW143298   9.492   2.982   4.402 -1.3430 -0.0285  0.3795
13404SOL    HW243299   9.570   3.117   4.353 -0.4169 -0.0528  1.7841
13405SOL     OW43300   2.663   3.702   2.789 -0.3074 -0.0408 -0.2162
13405SOL    HW143301   2.726   3.626   2.773 -0.9290 -0.4745 -0.5947
13405SOL    HW243302   2.589   3.671   2.849  0.2838  0.6947  0.9073
13406SOL     OW43303   3.137   9.980   2.842 -0.4230 -0.7347  0.1788
13406SOL    HW143304   3.194   9.936   2.912  0.3688 -3.5968 -2.1706
13406SOL    HW243305   3.193  10.046   2.791 -0.4998 -0.0538  0.9595
13407SOL     OW43306   3.688   8.720   0.542  0.3183  0.3336  0.4843
13407SOL    HW143307   3.766   8.740   0.601  0.8644  0.0362 -0.1329
13407SOL    HW243308   3.721   8.682   0.456 -0.5007  0.3860  0.1500
13409SOL     OW43309   5.104   3.504   2.088  0.2009 -0.2994 -0.6018
13409SOL    HW143310   5.054   3.578   2.044  1.7246  0.8696 -0.4011
13409SOL    HW243311   5.117   3.524   2.185  1.1665 -0.5160 -0.6768
13410SOL     OW43312   9.178   2.194   2.410 -0.2820 -0.2426  0.4178
13410SOL    HW143313   9.092   2.187   2.361  0.1804  0.5466 -0.5107
13410SOL    HW243314   9.173   2.139   2.494 -1.2339 -1.2121 -0.2651
13411SOL     OW43315   8.000   6.093   2.699 -0.1120 -0.0620  0.0767
13411SOL    HW143316   7.993   6.007   2.649  1.2147  0.5974 -1.3106
13411SOL    HW243317   8.097   6.116   2.712 -0.4381  1.4714 -0.0493
13412SOL     OW43318   2.877   4.457   1.348 -0.8091 -0.1295  0.2475
13412SOL    HW143319   2.806   4.480   1.415 -0.1340 -0.3979  1.0545
13412SOL    HW243320   2.966   4.484   1.384 -0.4269 -0.4410 -0.4683
13413SOL     OW43321   9.705   4.846   2.677 -0.2789 -0.1725 -0.2526
13413SOL    HW143322   9.618   4.888   2.702 -0.4288 -0.3721 -0.4337
13413SOL    HW243323   9.689   4.755   2.638 -0.1115  0.3632 -1.6318
13414SOL     OW43324   8.702   2.258   1.347 -0.3023 -0.2314 -0.4561
13414SOL    HW143325   8.775   2.320   1.319  0.9980 -1.2402  0.5810
13414SOL    HW243326   8.673   2.203   1.269  2.4594 -2.1959 -0.1910
13415SOL     OW43327   3.752   1.527   3.446  0.2662  0.4952  0.1746
13415SOL    HW143328   3.851   1.514   3.455  0.4673  0.2673 -2.1426
13415SOL    HW243329   3.709   1.442   3.414 -0.7808  0.4048  1.7530
13416SOL     OW43330   0.624   6.089   2.913  0.4159 -1.0951 -0.6567
13416SOL    HW143331   0.694   6.062   2.978  0.9723  0.1041 -0.7446
13416SOL    HW243332   0.652   6.064   2.820  0.3809 -1.3067 -0.6090
13417SOL     OW43333   3.994   5.749   1.695 -0.2079  0.3057  0.9780
13417SOL    HW143334   3.895   5.737   1.706 -0.4006  0.9776 -0.0768
13417SOL    HW243335   4.015   5.846   1.683  0.4768  0.0435  0.0847
13418SOL     OW43336   7.635   8.077   1.563 -0.3133 -0.0752  0.1983
13418SOL    HW143337   7.696   8.136   1.510 -1.3296  2.1362  1.4246
13418SOL    HW243338   7.689   8.025   1.630  0.5362 -0.1636 -0.5424
13419SOL     OW43339   7.678   5.988   4.173 -0.4536  0.0906 -0.7899
13419SOL    HW143340   7.663   5.893   4.197 -0.3241 -0.3542 -2.4041
13419SOL    HW243341   7.608   6.018   4.109  0.2104  0.7137 -1.2381
13421SOL     OW43342   2.140   5.411   2.115  0.0793  0.3944  0.2115
13421SOL    HW143343   2.236   5.390   2.129 -0.1154 -0.6689 -0.0593
13421SOL    HW243344   2.108   5.471   2.189  0.8434  0.4476  0.5005
13422SOL     OW43345   6.879   9.850   1.395  0.1937 -0.0102  0.3766
13422SOL    HW143346   6.962   9.879   1.442  1.0408  1.0863 -1.7376
13422SOL    HW243347   6.807   9.918   1.407 -0.0310 -0.3845  1.1966
13423SOL     OW43348   3.771   5.907   1.746 -0.0294 -0.3869 -0.3267
13423SOL    HW143349   3.758   5.977   1.816  0.2219 -0.6415 -0.0262
13423SOL    HW243350   3.766   5.950   1.655 -2.2181 -0.3489 -0.2267
13424SOL     OW43351   3.160   0.594   4.184  0.0459 -0.7556 -0.0001
13424SOL    HW143352   3.079   0.653   4.185 -0.8081 -1.8468 -1.8597
13424SOL    HW243353   3.221   0.620   4.259 -1.8621  0.3001  1.2369
13425SOL     OW43354   1.012   0.659   2.689  0.1519 -0.1694 -0.3109
13425SOL    HW143355   1.071   0.689   2.763 -1.0021 -1.3367  1.1029
13425SOL    HW243356   0.963   0.576   2.716 -2.2411  0.8412 -1.3678
13426SOL     OW43357   2.341   3.837   4.023  0.0445 -0.3174  0.1991
13426SOL    HW143358   2.251   3.818   3.983 -1.0752  0.6162  2.2022
13426SOL    HW243359   2.330   3.865   4.118  2.4298  0.4453  0.2858
13428SOL     OW43360   0.341   8.551   2.127  0.7570  0.2508 -0.0948
13428SOL    HW143361   0.419   8.498   2.092  0.9978  0.0951  0.6643
13428SOL    HW243362   0.256   8.511   2.095  1.0445  2.0964 -3.3019
13429SOL     OW43363   8.727   1.493   3.332 -0.2203  0.5504 -0.1938
13429SOL    HW143364   8.781   1.517   3.251  1.8633  0.2250  1.0766
13429SOL    HW243365   8.773   1.526   3.414  0.2018 -3.3941  1.2307
13430SOL     OW43366   8.154   4.978   0.985 -0.1667  0.1580  0.1033
13430SOL    HW143367   8.147   5.069   1.027  2.6981  1.7065 -2.4923
13430SOL    HW243368   8.249   4.948   0.989 -1.0393 -2.6135  0.5992
13433SOL     OW43369   3.854   3.841   4.306 -0.0283 -0.0181  0.5070
13433SOL    HW143370   3.755   3.841   4.315 -0.0980  1.9841 -0.2146
13433SOL    HW243371   3.896   3.866   4.394 -0.2090  1.0179  0.2970
13434SOL     OW43372   9.395   2.491   4.369 -0.1518 -0.4579 -0.4639
13434SOL    HW143373   9.408   2.396   4.340 -0.5088 -0.3984 -0.8158
13434SOL    HW243374   9.367   2.546   4.291 -1.8339 -0.4364  0.1387
13436SOL     OW43375   4.372   3.982   1.204  0.2636  0.0320  0.3149
13436SOL    HW143376   4.335   4.071   1.231  0.6819 -0.1170  1.3889
13436SOL    HW243377   4.454   3.996   1.148  0.4751  0.3220  0.6957
13438SOL     OW43378   5.854   0.601   0.824 -0.1261 -0.1291 -0.0446
13438SOL    HW143379   5.830   0.698   0.816 -0.9103 -0.3548 -0.3862
13438SOL    HW243380   5.951   0.593   0.850  0.3771  0.7279 -1.6342
13439SOL     OW43381   9.106   8.191   1.480  0.2079 -0.2365  0.0232
13439SOL    HW143382   9.091   8.104   1.432  1.7468  0.2759 -1.4377
13439SOL    HW243383   9.084   8.267   1.419  1.0728  0.4164  0.5214
13440SOL     OW43384   4.885   1.520   2.576 -0.2385  0.1414  0.4479
13440SOL    HW143385   4.901   1.458   2.498  0.3579  0.4639  0.3121
13440SOL    HW243386   4.787   1.527   2.593 -0.4480  1.0233 -1.0480
13441SOL     OW43387   1.550   1.394   2.079 -0.2321  0.4375 -0.2524
13441SOL    HW143388   1.643   1.395   2.042  0.0456 -1.9892  0.2871
13441SOL    HW243389   1.539   1.471   2.142  1.4422  0.7165 -0.2722
13442SOL     OW43390   6.541   9.080   3.754 -0.0032 -0.1649  0.1965
13442SOL    HW143391   6.612   9.021   3.793 -0.1701  0.7027  1.8648
13442SOL    HW243392   6.581   9.140   3.685  0.4535 -1.1556 -0.4182
13444SOL     OW43393   8.179   5.563   3.565 -0.7900  0.0081  0.2702
13444SOL    HW143394   8.183   5.555   3.665  1.4867 -0.4099  0.1810
13444SOL    HW243395   8.204   5.657   3.539 -0.3235 -0.1778  0.0455
13445SOL     OW43396   4.098   6.027   1.748  0.4051  0.0897 -0.3038
13445SOL    HW143397   4.066   6.026   1.842  0.1972  3.1452 -0.3012
13445SOL    HW243398   4.195   6.052   1.746 -0.3824  3.2350 -1.0585
13446SOL     OW43399   3.205   2.051   1.807  0.4917 -0.5304  0.3775
13446SOL    HW143400   3.288   2.000   1.787  2.0367  2.1851 -0.4503
13446SOL    HW243401   3.185   2.114   1.731 -1.8536 -0.5517  0.9368
13447SOL     OW43402   8.855   9.080   3.904  0.3279 -0.1075 -0.2451
13447SOL    HW143403   8.862   9.021   3.984  1.9042 -0.6981 -0.7942
13447SOL    HW243404   8.910   9.162   3.919 -0.1554  0.2346 -0.3347
13448SOL     OW43405   2.541   0.538   1.878  0.2844 -0.1485  0.0025
13448SOL    HW143406   2.529   0.439   1.882  0.3899 -0.2299 -1.6767
13448SOL    HW243407   2.461   0.580   1.835 -0.0520  0.5695  1.2892
13449SOL     OW43408   2.841   3.491   2.736  0.0736  0.3500  0.0773
13449SOL    HW143409   2.867   3.507   2.641  1.1320  1.6050  0.5634
13449SOL    HW243410   2.832   3.393   2.752  0.6617  0.0927 -1.1160
13450SOL     OW43411   8.496   1.105   1.522  0.0881 -0.1442 -0.2180
13450SOL    HW143412   8.401   1.078   1.506  0.0954 -0.6150  0.4972
13450SOL    HW243413   8.526   1.167   1.450 -1.9123  2.9283  1.4957
13451SOL     OW43414   1.613   4.847   0.011 -0.3014  0.7051  0.8424
13451SOL    HW143415   1.670   4.928   0.026 -0.6708  0.8486  1.4493
13451SOL    HW243416   1.662   4.783  -0.049  0.0361  1.3212  0.4546
13453SOL     OW43417   5.576   0.627   1.663 -0.3178  0.6499  0.2089
13453SOL    HW143418   5.667   0.664   1.677 -0.2035  0.5918 -0.3788
13453SOL    HW243419   5.508   0.695   1.689 -0.1330 -0.3689  3.5555
13454SOL     OW43420   0.252   1.494   3.589 -0.2273  0.0015 -0.6225
13454SOL    HW143421   0.231   1.524   3.682  1.2549  1.4586 -0.7464
13454SOL    HW243422   0.166   1.481   3.539 -0.9835  1.7386  0.1694
13456SOL     OW43423   3.106   6.428   1.514 -0.8239  0.3459  0.6477
13456SOL    HW143424   3.115   6.336   1.476 -1.2081 -0.0500  1.5021
13456SOL    HW243425   3.119   6.424   1.613  0.8494  1.4605  0.4913
13457SOL     OW43426   2.232   1.048   2.816  0.0625 -0.0653  0.1995
13457SOL    HW143427   2.271   1.122   2.871  0.3853  0.7739 -1.1248
13457SOL    HW243428   2.306   0.996   2.774 -0.2002  0.0079 -0.3555
13458SOL     OW43429   7.382   3.266   0.706 -0.0445 -0.2159  0.1351
13458SOL    HW143430   7.310   3.233   0.767  1.2850  0.5419  2.1790
13458SOL    HW243431   7.371   3.225   0.615 -1.7646 -1.7847  1.0257
13459SOL     OW43432   8.731   5.132   0.766  0.1705  0.0828  0.1953
13459SOL    HW143433   8.750   5.127   0.668  0.9460  1.0671  0.2852
13459SOL    HW243434   8.651   5.190   0.781  1.6643  2.1863  0.2999
13460SOL     OW43435   9.088   5.260   2.725  0.6242 -0.4328  0.2364
13460SOL    HW143436   9.036   5.188   2.771 -0.5567 -1.2672 -2.3335
13460SOL    HW243437   9.142   5.220   2.651 -0.0817  1.3214 -1.2658
13461SOL     OW43438   1.764   9.418   4.413  0.0175 -0.0159  0.1401
13461SOL    HW143439   1.667   9.443   4.412 -0.1132 -0.4696  1.3971
13461SOL    HW243440   1.774   9.320   4.428  0.7112  0.2848  1.7253
13464SOL     OW43441   8.533   7.242   0.073  0.2097  0.1647 -0.3347
13464SOL    HW143442   8.618   7.286   0.103 -0.4932  1.0279  0.4458
13464SOL    HW243443   8.504   7.282  -0.014 -0.3424  1.1619  0.2948
13466SOL     OW43444   4.154   7.507   2.670  0.2551  0.3438 -0.4096
13466SOL    HW143445   4.171   7.523   2.767 -0.9086  0.5023 -0.2345
13466SOL    HW243446   4.095   7.427   2.658  0.5384  0.2141 -0.9963
13467SOL     OW43447   0.458   0.499   4.278  0.5814 -0.1320 -0.2187
13467SOL    HW143448   0.447   0.593   4.246 -2.2997 -0.5133 -0.4890
13467SOL    HW243449   0.501   0.444   4.207 -0.3552  0.3569 -1.1792
13468SOL     OW43450   8.921   1.800   2.067 -0.4427  0.1508 -0.0774
13468SOL    HW143451   8.910   1.735   1.992  2.8688  0.5502 -0.9767
13468SOL    HW243452   9.015   1.797   2.101 -1.3807  1.3705  2.7853
13470SOL     OW43453   4.646   3.886   0.616  0.2526  0.2402 -0.0017
13470SOL    HW143454   4.728   3.931   0.652 -0.2751  2.3612 -1.3768
13470SOL    HW243455   4.569   3.904   0.676  0.0488  1.2047 -0.5336
13471SOL     OW43456   9.101   4.495   1.057  0.2435 -0.1691  0.3382
13471SOL    HW143457   9.153   4.427   1.006 -0.2639  0.5538 -1.1537
13471SOL    HW243458   9.159   4.575   1.074  0.4610 -0.4688  1.0595
13472SOL     OW43459   9.547   4.547   4.408 -0.2532 -0.3295 -0.0825
13472SOL    HW143460   9.521   4.493   4.328 -2.2162 -0.2336  0.4782
13472SOL    HW243461   9.470   4.555   4.470  1.2867 -0.4895  1.9029
13473SOL     OW43462   4.452   8.884   0.235 -0.7036  0.1882  0.4968
13473SOL    HW143463   4.414   8.943   0.164  0.1504  0.0025 -0.1179
13473SOL    HW243464   4.408   8.904   0.322 -1.0963  1.0636  0.1012
13474SOL     OW43465   2.688   1.944   3.450 -0.0972  0.1014  0.1717
13474SOL    HW143466   2.665   1.931   3.354  0.3401 -2.5836  0.3918
13474SOL    HW243467   2.620   1.899   3.507  0.6302  0.1135  1.0699
13475SOL     OW43468   8.129   6.918   3.374 -0.1374  0.0236  0.1037
13475SOL    HW143469   8.173   6.829   3.389 -0.5096  0.0488  1.3891
13475SOL    HW243470   8.039   6.904   3.333  0.8131 -0.0549 -2.0385
13476SOL     OW43471   5.328   0.715   2.033 -0.1843 -0.0813 -0.1220
13476SOL    HW143472   5.252   0.659   2.065 -0.0363  0.4028  1.1243
13476SOL    HW243473   5.403   0.710   2.099 -0.0345  1.2845 -0.1677
13477SOL     OW43474   4.460   1.602   2.994  0.1455 -0.0618  0.1558
13477SOL    HW143475   4.361   1.588   2.988  0.1551 -0.3015  0.5393
13477SOL    HW243476   4.492   1.573   3.085  0.1370  2.5743  1.0297
13479SOL     OW43477   9.913   6.259   2.743 -0.7944 -0.2878 -0.0979
13479SOL    HW143478   9.842   6.260   2.672 -0.2242 -0.2982 -0.6772
13479SOL    HW243479   9.919   6.168   2.782 -1.2320 -0.2383  0.0818
13480SOL     OW43480   4.370   9.798   1.624 -0.0619 -0.2185  0.5123
13480SOL    HW143481   4.315   9.765   1.701 -0.5279 -0.7015 -0.0156
13480SOL    HW243482   4.464   9.813   1.654 -0.3735  0.1534  1.3127
13481SOL     OW43483   1.178   9.343   2.484  0.4036 -0.0389  0.1561
13481SOL    HW143484   1.152   9.308   2.574  2.3347  0.7251  1.0463
13481SOL    HW243485   1.275   9.322   2.468 -0.4103 -1.9269 -2.5934
13482SOL     OW43486   1.903   3.807   1.766  0.2439  0.1998  0.9080
13482SOL    HW143487   1.990   3.852   1.788 -0.3055  0.8032  1.8831
13482SOL    HW243488   1.842   3.813   1.845 -0.7194 -0.1298  0.1911
13484SOL     OW43489   8.370   1.742   4.063  0.2879 -0.1627 -0.9482
13484SOL    HW143490   8.271   1.733   4.061  0.2030 -0.0044  1.5222
13484SOL    HW243491   8.395   1.834   4.031 -0.3095 -0.4530 -2.2632
13485SOL     OW43492   9.440   6.137   0.602 -0.3302  0.9379 -0.2799
13485SOL    HW143493   9.510   6.092   0.657 -1.6279 -0.0315  0.6165
13485SOL    HW243494   9.360   6.157   0.659 -0.7006  2.2207 -1.2287
13486SOL     OW43495   3.927   8.414   4.306 -0.6560  0.2628  0.3738
13486SOL    HW143496   3.857   8.468   4.259 -1.4338 -0.3229  0.8564
13486SOL    HW243497   3.906   8.316   4.295  1.6882 -0.0546 -2.0308
13487SOL     OW43498   0.779   9.235   2.606  0.1947  0.4499 -0.3892
13487SOL    HW143499   0.728   9.151   2.625  1.9366 -0.7468 -0.9270
13487SOL    HW243500   0.741   9.278   2.523  0.5240 -0.8216 -1.2123
13490SOL     OW43501   3.640   2.403   2.340  0.0611 -0.3047  0.4717
13490SOL    HW143502   3.550   2.375   2.306  0.7163 -0.1862 -1.3698
13490SOL    HW243503   3.709   2.389   2.269  1.0677  2.1752  0.9083
13491SOL     OW43504   9.694   9.837   2.631  0.0554 -0.3993  0.2646
13491SOL    HW143505   9.704   9.820   2.729  1.5328  0.6475  0.3177
13491SOL    HW243506   9.749   9.917   2.606 -0.9831 -0.1557 -1.2620
13492SOL     OW43507   4.219   1.905   1.866 -0.3564  0.3482  0.2136
13492SOL    HW143508   4.248   1.866   1.779  0.5254  0.4479  0.4540
13492SOL    HW243509   4.235   2.004   1.865  0.5859  0.2089  0.8446
13493SOL     OW43510   0.833   7.788   4.009  0.0124  0.4467  0.0031
13493SOL    HW143511   0.760   7.745   3.955  0.1253  1.4173 -0.9347
13493SOL    HW243512   0.864   7.871   3.963  2.1907 -0.3237  0.0265
13494SOL     OW43513   1.913   5.794   0.911 -0.5046 -0.5073  0.2130
13494SOL    HW143514   1.855   5.713   0.902 -0.3648 -0.5405 -0.4803
13494SOL    HW243515   1.907   5.848   0.827  0.1544 -0.3056  0.2904
13495SOL     OW43516   7.885   9.869   1.627 -0.2415 -0.1012 -0.0099
13495SOL    HW143517   7.894   9.955   1.676  1.3541  1.1435 -2.3648
13495SOL    HW243518   7.800   9.823   1.653 -2.1610  3.1995 -0.2565
13496SOL     OW43519   3.022   0.069   3.269 -0.2340 -0.5558 -0.6404
13496SOL    HW143520   2.993  -0.014   3.317 -0.1844 -0.0528  0.2676
13496SOL    HW243521   3.003   0.059   3.171 -1.5073 -1.0908 -0.3572
13497SOL     OW43522   5.374   0.631   4.191  0.3372  0.2258  0.3088
13497SOL    HW143523   5.400   0.595   4.102 -0.9032  1.1264 -0.4374
13497SOL    HW243524   5.443   0.605   4.259 -0.1320 -2.8442 -0.3385
13498SOL     OW43525   1.792   5.025   2.220  0.1926 -0.4239  0.8682
13498SOL    HW143526   1.839   5.086   2.156 -0.7639 -0.4854  0.0992
13498SOL    HW243527   1.859   4.986   2.283  1.0842 -0.0241  0.1896
13499SOL     OW43528   9.676   4.295   0.314  0.0820 -0.4855 -0.5760
13499SOL    HW143529   9.722   4.380   0.290 -0.6341 -0.2364 -1.1143
13499SOL    HW243530   9.577   4.309   0.312 -0.0274 -1.1451  0.0300
13500SOL     OW43531   9.717   5.789   0.003 -0.4041 -0.4772  0.0779
13500SOL    HW143532   9.653   5.740   0.061 -1.3703  1.3942  0.6578
13500SOL    HW243533   9.674   5.874  -0.029 -0.1259 -1.6767 -3.8382
13501SOL     OW43534   8.326   8.305   2.943  0.0444  0.5356 -0.5997
13501SOL    HW143535   8.328   8.310   2.843 -0.2413  2.0225 -0.5454
13501SOL    HW243536   8.418   8.312   2.979  0.0356  1.4891 -0.7223
13503SOL     OW43537   9.766   6.675   2.548 -0.6436 -0.0869 -0.5380
13503SOL    HW143538   9.703   6.706   2.476  0.1619  1.4594 -0.6057
13503SOL    HW243539   9.855   6.719   2.535 -0.0403 -0.9629  0.5331
13504SOL     OW43540   7.648   8.546   3.701 -0.1006 -0.3090 -0.2508
13504SOL    HW143541   7.644   8.603   3.783 -1.4671  1.3031 -1.3844
13504SOL    HW243542   7.661   8.451   3.726  0.2575  0.2654  1.7887
13506SOL     OW43543   3.953   9.191   3.369 -0.0336 -0.0144  0.0713
13506SOL    HW143544   3.943   9.290   3.369 -1.4186 -0.1423  0.5565
13506SOL    HW243545   3.876   9.150   3.417 -1.5401 -1.5230 -3.4272
13507SOL     OW43546   8.840   8.355   4.094 -0.9622  0.2784  0.0672
13507SOL    HW143547   8.849   8.285   4.164  0.8718 -0.2713 -0.6985
13507SOL    HW243548   8.743   8.369   4.073 -1.5509  0.5334  2.7588
13508SOL     OW43549   0.843   9.190   4.186  0.4050  0.4711 -0.4266
13508SOL    HW143550   0.827   9.197   4.284  0.2163 -0.2768 -0.4031
13508SOL    HW243551   0.840   9.093   4.158  0.1022  0.7057 -1.2261
13509SOL     OW43552   8.791   3.919   4.200 -0.3342  0.0428 -0.2068
13509SOL    HW143553   8.822   4.011   4.226  0.7831 -0.4484  0.1912
13509SOL    HW243554   8.752   3.873   4.280  1.5641 -0.8321  0.2365
13510SOL     OW43555   4.405   9.641   0.352 -0.3892 -0.0338 -0.0183
13510SOL    HW143556   4.382   9.700   0.429 -0.2555  0.3778 -0.2891
13510SOL    HW243557   4.482   9.582   0.377 -0.7349 -0.3228  0.3619
13511SOL     OW43558   0.036   7.109   0.203  0.4329  0.2031  0.0511
13511SOL    HW143559   0.005   7.190   0.254 -0.3122 -0.8005  1.2142
13511SOL    HW243560   0.079   7.044   0.266 -1.5143 -1.5604 -0.3690
13512SOL     OW43561   7.510   8.821   3.191  0.0648  0.5542  0.5385
13512SOL    HW143562   7.593   8.773   3.218  1.6837  3.3203  0.6062
13512SOL    HW243563   7.505   8.909   3.238 -2.1906  1.0489 -0.5496
13513SOL     OW43564   3.395   3.816   2.689  0.2776 -0.0476  0.0059
13513SOL    HW143565   3.331   3.746   2.656 -1.7371  0.9925  1.5771
13513SOL    HW243566   3.383   3.830   2.787  0.7018  2.4072 -0.2436
13514SOL     OW43567   5.332   9.017   3.734 -0.2430  0.0507  0.2435
13514SOL    HW143568   5.413   9.070   3.709 -0.9143  0.1078 -1.9146
13514SOL    HW243569   5.356   8.920   3.741 -0.1280 -0.0298 -1.1452
13515SOL     OW43570   4.447   7.332   3.745 -0.2643 -0.3679 -0.4504
13515SOL    HW143571   4.545   7.316   3.750 -0.2458 -1.2888 -3.0055
13515SOL    HW243572   4.412   7.355   3.836  2.4030  0.6330  0.3666
13516SOL     OW43573   6.173   1.242   2.932  0.3886 -0.4199 -0.2067
13516SOL    HW143574   6.225   1.167   2.973  1.1981 -0.5161 -1.3923
13516SOL    HW243575   6.103   1.273   2.997  2.7045  0.5406  1.9320
13517SOL     OW43576   4.483   9.924   1.006  0.6325 -0.0221 -0.1068
13517SOL    HW143577   4.533   9.844   1.039 -1.6711 -0.7583  1.7007
13517SOL    HW243578   4.454   9.980   1.084  0.5905  1.6023 -1.2561
13518SOL     OW43579   1.703   2.392   1.094 -0.5409  0.1715  0.2472
13518SOL    HW143580   1.705   2.367   1.191 -1.3614 -1.4081 -0.1386
13518SOL    HW243581   1.781   2.351   1.047  0.6519  2.0823  0.4841
13519SOL     OW43582   2.482   1.543   3.777  0.3364 -0.0878  0.0370
13519SOL    HW143583   2.555   1.533   3.845  0.9769 -0.0694 -0.6509
13519SOL    HW243584   2.504   1.489   3.696  0.4901  1.3998 -0.9180
13520SOL     OW43585   8.793   1.082   0.471 -0.6283  0.1615 -0.6834
13520SOL    HW143586   8.745   1.032   0.544 -0.4942  0.3682 -0.4514
13520SOL    HW243587   8.862   1.023   0.430 -2.4436 -0.8415 -2.4174
13521SOL     OW43588   2.766   0.580   0.319 -0.1798 -0.2893 -0.3911
13521SOL    HW143589   2.809   0.667   0.294 -0.5837 -0.3573 -1.3406
13521SOL    HW243590   2.795   0.554   0.411  0.8567  0.2766 -0.5491
13522SOL     OW43591   1.217   5.491   1.310  0.5427  0.1297 -0.1641
13522SOL    HW143592   1.248   5.481   1.215  0.8641  0.6562 -0.1198
13522SOL    HW243593   1.288   5.539   1.362 -0.5316  1.7287 -0.1507
13523SOL     OW43594   2.037   9.043   1.568  0.3729  0.4989  0.3347
13523SOL    HW143595   2.033   8.955   1.616 -0.9543  0.4598  0.1654
13523SOL    HW243596   1.964   9.103   1.602  0.5505  1.1175 -0.3700
13524SOL     OW43597   9.388   8.600   3.684 -0.3157  0.4915 -0.6962
13524SOL    HW143598   9.321   8.532   3.714 -0.9364  0.9839 -0.9517
13524SOL    HW243599   9.402   8.668   3.756 -2.4527  2.1637 -1.7801
13526SOL     OW43600   4.126   6.454   1.248 -0.1087  0.4903  0.8516
13526SOL    HW143601   4.066   6.448   1.168 -0.0407  3.2059  0.5302
13526SOL    HW243602   4.073   6.433   1.330 -0.7438 -0.1244  0.2926
13527SOL     OW43603   1.775   5.678   1.475 -0.8828 -0.0410  0.3659
13527SOL    HW143604   1.733   5.595   1.513 -0.6148 -0.3078  0.0740
13527SOL    HW243605   1.806   5.661   1.382 -0.4309  0.2623  0.4600
13529SOL     OW43606   5.989   8.882   3.383 -0.6878  0.2305  0.0686
13529SOL    HW143607   5.909   8.924   3.425 -1.2827 -0.8433  0.0235
13529SOL    HW243608   6.023   8.940   3.308 -1.4765  0.6372  0.0310
13530SOL     OW43609   8.450   0.129   3.396  0.4993  0.0843  0.1064
13530SOL    HW143610   8.545   0.137   3.426  1.2515  0.8598 -2.4132
13530SOL    HW243611   8.444   0.144   3.298 -2.2807  0.3245  0.2686
13533SOL     OW43612   4.638   7.269   2.100 -0.4062 -0.5490  0.0248
13533SOL    HW143613   4.638   7.188   2.158  1.0355 -0.1545  0.5984
13533SOL    HW243614   4.603   7.347   2.152  1.2222 -0.1169  0.5085
13534SOL     OW43615   2.166   8.035   0.369  0.2666  0.2385 -0.4555
13534SOL    HW143616   2.197   8.129   0.358  1.1544 -0.1942 -1.9027
13534SOL    HW243617   2.240   7.980   0.407  0.1264 -0.0983 -0.6668
13535SOL     OW43618   7.214   4.483   0.747  0.6583  0.4544 -1.0092
13535SOL    HW143619   7.165   4.502   0.662  2.1970  1.0864 -1.7760
13535SOL    HW243620   7.272   4.403   0.735  0.0407 -0.1274 -0.1944
13537SOL     OW43621   5.180   7.191   3.644  0.1236  0.0010 -0.4400
13537SOL    HW143622   5.220   7.261   3.703  1.9484 -1.7391  0.4394
13537SOL    HW243623   5.103   7.230   3.593  0.6091  2.4102  0.6191
13538SOL     OW43624   4.009   6.794   1.953 -0.2474 -0.1020 -0.3273
13538SOL    HW143625   3.927   6.851   1.944 -0.4094 -0.1199  0.8312
13538SOL    HW243626   4.007   6.748   2.042 -0.3440 -2.2961 -1.4343
13539SOL     OW43627   7.292   3.316   1.095 -0.0248 -0.0275  1.0286
13539SOL    HW143628   7.290   3.224   1.058 -0.9137 -0.4139  2.0005
13539SOL    HW243629   7.380   3.332   1.141 -0.0396 -0.5398  1.2328
13540SOL     OW43630   0.865   1.967   1.827 -0.1429  0.1833 -0.0604
13540SOL    HW143631   0.826   2.037   1.766 -0.7213 -2.3928 -2.7650
13540SOL    HW243632   0.960   1.990   1.847  0.5427  0.3558 -3.2007
13541SOL     OW43633   5.739   9.420   1.698 -0.3082 -0.3775  0.4664
13541SOL    HW143634   5.777   9.374   1.618 -0.8877 -0.5581  0.2947
13541SOL    HW243635   5.658   9.472   1.672  1.4755  2.4012  0.2713
13542SOL     OW43636   8.598   9.635   1.489 -0.1144  0.0016 -0.6720
13542SOL    HW143637   8.684   9.654   1.538 -0.3947  0.2757 -0.2752
13542SOL    HW243638   8.521   9.656   1.549 -0.4760  0.9339 -1.4453
13543SOL     OW43639   1.260   5.483   1.044 -0.2528 -0.5390  0.5023
13543SOL    HW143640   1.200   5.561   1.062  0.5219  0.1201  0.2641
13543SOL    HW243641   1.254   5.457   0.948  0.6862  0.2595  0.2143
13544SOL     OW43642   3.553   8.288   3.704 -0.4480 -0.3749 -0.6479
13544SOL    HW143643   3.605   8.310   3.621  3.5869 -1.1811  1.5689
13544SOL    HW243644   3.563   8.191   3.725 -0.1482  0.1396  1.6586
13545SOL     OW43645   4.018   1.623   0.521  0.0431 -0.7199  0.1812
13545SOL    HW143646   3.933   1.663   0.555 -1.3596 -3.6647  0.2747
13545SOL    HW243647   4.058   1.683   0.451 -1.7102  1.0354  0.6429
13546SOL     OW43648   2.468   1.800   0.129  0.0263 -0.1810 -0.3102
13546SOL    HW143649   2.369   1.800   0.115 -0.0789  1.2554  0.4633
13546SOL    HW243650   2.512   1.839   0.048  0.0077 -1.1608 -0.8145
13548SOL     OW43651   1.113   6.325   2.698 -0.4940  0.1758 -0.0992
13548SOL    HW143652   1.106   6.256   2.627  0.9850 -0.2490  0.1504
13548SOL    HW243653   1.199   6.314   2.747 -0.9146  1.2662  0.9206
13550SOL     OW43654   1.769   7.605   4.081  0.2170  0.3990  0.2266
13550SOL    HW143655   1.856   7.627   4.038  0.4838  0.0265  0.5798
13550SOL    HW243656   1.699   7.668   4.047  0.1501 -0.6939 -1.7203
13551SOL     OW43657   8.010   3.319   4.315  0.2794 -0.2106 -0.2393
13551SOL    HW143658   7.932   3.316   4.377 -0.6956  0.4488 -1.4068
13551SOL    HW243659   8.037   3.225   4.292 -0.3040 -0.4480  0.0217
13552SOL     OW43660   9.830   9.595   1.306 -0.2672  0.1545 -0.4078
13552SOL    HW143661   9.790   9.679   1.270 -0.2141  0.6622  0.6809
13552SOL    HW243662   9.771   9.517   1.284 -1.8256  0.8760  1.0836
13554SOL     OW43663   9.375   2.262   2.823  0.4877  0.2410  0.2743
13554SOL    HW143664   9.289   2.251   2.772 -0.0569  1.2837  0.9457
13554SOL    HW243665   9.370   2.344   2.879  1.6117 -0.1548  0.9754
13555SOL     OW43666   1.719   4.376   3.452 -0.2536 -0.1031  0.1769
13555SOL    HW143667   1.729   4.450   3.518 -0.2836  0.7594 -0.7594
13555SOL    HW243668   1.657   4.307   3.487  0.3347 -0.0367  1.3684
13556SOL     OW43669   2.744   2.606   3.387 -0.5529  0.2873 -0.5492
13556SOL    HW143670   2.645   2.596   3.380 -0.3091 -0.2030 -3.7748
13556SOL    HW243671   2.788   2.518   3.371  0.4835  0.8975 -1.0921
13557SOL     OW43672   2.189   7.436   2.410  0.2646  0.1297  0.1156
13557SOL    HW143673   2.227   7.482   2.490  0.7427  1.1258 -0.6730
13557SOL    HW243674   2.116   7.373   2.439  1.7420 -0.9872  1.5382
13558SOL     OW43675   2.643   8.293   3.463 -0.4406 -0.3715  0.3634
13558SOL    HW143676   2.664   8.363   3.394  0.7486 -0.2336  0.8488
13558SOL    HW243677   2.547   8.265   3.454 -0.1212 -0.8896 -1.8410
13560SOL     OW43678   0.931   8.615   0.719 -0.0015  0.1492 -0.1645
13560SOL    HW143679   0.875   8.630   0.638 -0.2791  1.7721  0.3174
13560SOL    HW243680   1.013   8.672   0.715 -0.0798  0.3379  0.7505
13562SOL     OW43681   2.546   0.151   1.099 -0.5608  0.3018 -0.2387
13562SOL    HW143682   2.544   0.244   1.135 -0.6162 -0.8258  2.7618
13562SOL    HW243683   2.629   0.105   1.131 -1.4256 -1.2591 -0.2357
13563SOL     OW43684   4.188   8.947   4.247  0.2010 -0.2166  0.3377
13563SOL    HW143685   4.094   8.936   4.213  0.3002 -1.5428  0.4886
13563SOL    HW243686   4.226   9.033   4.212 -1.0414  0.3066  0.2225
13564SOL     OW43687   2.392   4.614   0.985 -0.5863 -0.2608  0.1200
13564SOL    HW143688   2.490   4.626   1.005 -0.7159  0.7306  0.1999
13564SOL    HW243689   2.381   4.592   0.888 -0.3846  1.3129 -0.2774
13565SOL     OW43690   2.317   2.059   1.233 -0.3804  0.5641  0.3139
13565SOL    HW143691   2.256   1.995   1.185 -0.5410  1.4677 -0.7105
13565SOL    HW243692   2.268   2.102   1.308 -0.2400 -0.5815  1.0844
13566SOL     OW43693   1.195   2.233   0.437  0.4815 -0.2666 -0.3218
13566SOL    HW143694   1.279   2.247   0.385  1.0103 -0.1927  0.5376
13566SOL    HW243695   1.117   2.227   0.374  0.7197  2.6876 -1.0030
13567SOL     OW43696   2.158   9.138   4.252 -0.3428  0.2866 -0.3968
13567SOL    HW143697   2.148   9.076   4.330  1.2691  0.3475 -0.1300
13567SOL    HW243698   2.143   9.087   4.167 -1.4427  0.0782 -0.0920
13568SOL     OW43699   8.539   6.256   0.392  0.5360 -0.3843  0.4513
13568SOL    HW143700   8.616   6.317   0.375  0.6146 -0.3393  0.9841
13568SOL    HW243701   8.466   6.307   0.439 -0.0343 -0.2834 -0.5236
13569SOL     OW43702   0.221   3.512   3.055  0.5645 -0.5193  0.4429
13569SOL    HW143703   0.200   3.424   3.012  0.7668 -0.5478  0.4014
13569SOL    HW243704   0.195   3.510   3.151  0.8062 -0.7140  0.5045
13570SOL     OW43705   4.629   9.275   3.173  0.3846  0.1043  0.1425
13570SOL    HW143706   4.567   9.320   3.238  0.2032  0.3051 -0.1655
13570SOL    HW243707   4.629   9.176   3.190 -0.1365  0.0874  0.0492
13571SOL     OW43708   4.806   4.483   1.049 -0.0267 -0.3381 -0.0773
13571SOL    HW143709   4.862   4.562   1.022 -0.4704 -0.1429 -0.4115
13571SOL    HW243710   4.786   4.490   1.147 -0.5819  0.2827 -0.2329
13573SOL     OW43711   0.909   9.495   0.665  0.0565 -0.0279  0.3170
13573SOL    HW143712   0.939   9.517   0.758 -0.9847  0.0116  0.6616
13573SOL    HW243713   0.856   9.571   0.628 -2.0585 -1.1755  0.8462
13574SOL     OW43714   0.100   1.530   2.692  0.1889  0.4097  0.1323
13574SOL    HW143715   0.196   1.503   2.678  0.5368  1.6564  0.0596
13574SOL    HW243716   0.041   1.469   2.640  0.8893 -0.8305  0.7527
13575SOL     OW43717   8.790   5.920   1.655 -0.0423 -0.0609  0.0110
13575SOL    HW143718   8.711   5.979   1.671  0.9448  1.8282 -1.8067
13575SOL    HW243719   8.768   5.854   1.584 -0.6654 -0.9464  1.0104
13576SOL     OW43720   3.172   6.884   2.778  1.2837  0.0301  0.0191
13576SOL    HW143721   3.272   6.880   2.765  1.3914 -0.4759  0.9831
13576SOL    HW243722   3.145   6.817   2.846  0.7315  2.6246  2.4168
13577SOL     OW43723   8.879   6.169   3.856  0.5177  0.0955 -0.3641
13577SOL    HW143724   8.798   6.161   3.797 -0.3777  0.2001  0.8174
13577SOL    HW243725   8.874   6.254   3.908  1.0694 -0.1982  0.1789
13578SOL     OW43726   1.375   3.255   2.415  0.1777  0.0760 -0.5092
13578SOL    HW143727   1.362   3.315   2.336 -0.0299  1.6015  0.6791
13578SOL    HW243728   1.446   3.188   2.394  0.1122  0.4464 -1.9939
13579SOL     OW43729   8.488   8.462   4.309 -0.1795 -0.0032  0.2520
13579SOL    HW143730   8.540   8.546   4.292  1.2747 -1.0630 -0.6365
13579SOL    HW243731   8.548   8.394   4.352 -1.0507 -0.9777 -0.0675
13580SOL     OW43732   9.381   1.798   1.317 -0.8609 -0.3886  0.1277
13580SOL    HW143733   9.479   1.784   1.312 -0.6649 -0.2676  3.0398
13580SOL    HW243734   9.334   1.710   1.322 -0.7143 -0.3868  1.5641
13581SOL     OW43735   2.917   4.532   1.777  0.2110  0.0037 -0.0631
13581SOL    HW143736   2.892   4.609   1.718  1.7788  0.5369 -0.0713
13581SOL    HW243737   2.951   4.457   1.720 -1.4035 -0.7383 -0.0615
13582SOL     OW43738   7.341   0.668   1.856 -0.0778  0.0820  0.8750
13582SOL    HW143739   7.245   0.696   1.857  0.2021  1.0487  1.0797
13582SOL    HW243740   7.399   0.745   1.884  0.7852 -0.3789  0.3871
13583SOL     OW43741   6.272   9.521   1.329  0.1930  0.2278  0.7058
13583SOL    HW143742   6.295   9.581   1.406  0.2889  1.6087 -0.3742
13583SOL    HW243743   6.247   9.577   1.250  0.0292 -1.1767 -0.2516
13584SOL     OW43744   2.046   3.000   2.839  0.1701  0.0847 -0.0559
13584SOL    HW143745   1.951   2.971   2.843 -0.0158  0.5776 -0.8721
13584SOL    HW243746   2.053   3.089   2.794  1.0570 -0.1706 -0.4547
13585SOL     OW43747   3.428   4.065   2.510  0.0819 -0.7908 -0.0440
13585SOL    HW143748   3.344   4.068   2.456 -0.4629 -1.4069  0.7524
13585SOL    HW243749   3.434   3.977   2.557  1.3408 -0.8731 -0.3513
13586SOL     OW43750   9.155   1.555   3.646  0.1050  0.1931  0.4708
13586SOL    HW143751   9.206   1.531   3.729 -2.0627 -3.3894  0.8393
13586SOL    HW243752   9.192   1.503   3.569 -1.2473 -0.4345  0.2357
13587SOL     OW43753   0.229   0.636   0.306  0.4668  0.4217  0.3102
13587SOL    HW143754   0.168   0.709   0.335 -0.0771  0.2164 -0.2974
13587SOL    HW243755   0.233   0.633   0.206  1.3100  0.2966  0.3391
13588SOL     OW43756   5.060   7.219   3.339  0.4184  0.2855 -0.1644
13588SOL    HW143757   5.012   7.279   3.274 -1.0237 -0.9005 -0.2231
13588SOL    HW243758   5.134   7.172   3.292  1.1103  1.4620 -0.2871
13589SOL     OW43759   2.730   1.528   3.896  0.1670  0.1340 -0.5914
13589SOL    HW143760   2.737   1.579   3.810  1.7724 -0.3420 -0.7587
13589SOL    HW243761   2.785   1.573   3.966 -0.1501 -0.1623 -0.1530
13590SOL     OW43762   4.495   0.652   0.247 -0.1042  0.3757  0.2848
13590SOL    HW143763   4.514   0.694   0.158 -1.0815  1.2627  0.4884
13590SOL    HW243764   4.479   0.554   0.234 -2.4393  0.8485 -0.8462
13591SOL     OW43765   8.453   4.164   0.355 -0.0775 -0.1730 -0.2497
13591SOL    HW143766   8.459   4.122   0.445  0.0835 -0.7969 -0.5512
13591SOL    HW243767   8.537   4.215   0.336  0.2964 -0.8631 -0.4557
13592SOL     OW43768   1.161   0.072   0.392 -0.2017 -0.4922 -0.3578
13592SOL    HW143769   1.257   0.042   0.393 -0.1886 -0.4417  0.6616
13592SOL    HW243770   1.112   0.022   0.321  0.6440 -0.3180 -1.0814
13593SOL     OW43771   4.581   1.000   3.396  0.1431 -0.0501  0.3596
13593SOL    HW143772   4.641   1.064   3.443  1.9602  0.4574 -2.5092
13593SOL    HW243773   4.601   1.002   3.298 -2.3532 -2.2771 -0.2454
13594SOL     OW43774   2.681   4.613   0.348  0.1147  0.6221 -0.7576
13594SOL    HW143775   2.604   4.564   0.389  0.9334 -0.7247 -0.8070
13594SOL    HW243776   2.647   4.673   0.276 -0.9917  0.7021 -0.1824
13595SOL     OW43777   8.041   0.336   0.519  0.1823  0.3511 -0.0238
13595SOL    HW143778   8.099   0.360   0.596  0.9084  1.2249 -0.8390
13595SOL    HW243779   8.095   0.334   0.435 -1.0488  1.7190 -0.8877
13596SOL     OW43780   7.411   2.015   1.388  0.1483 -0.0018 -0.0592
13596SOL    HW143781   7.447   1.947   1.452 -0.5078 -0.0669  0.2386
13596SOL    HW243782   7.443   1.994   1.296  0.3197 -0.4517  0.1005
13597SOL     OW43783   6.763   1.845   2.696  0.6159  0.1595  0.2794
13597SOL    HW143784   6.747   1.942   2.715 -2.4900 -0.4688  1.1480
13597SOL    HW243785   6.706   1.816   2.619  1.8648 -0.8824 -0.2778
13598SOL     OW43786   8.629   7.162   2.602  0.4267 -0.3266  0.6599
13598SOL    HW143787   8.701   7.232   2.598 -1.0689  1.3495  2.4523
13598SOL    HW243788   8.586   7.163   2.692 -2.3354 -0.8222 -0.5927
13599SOL     OW43789   3.570   2.921   0.866  0.0613 -0.2049  0.4708
13599SOL    HW143790   3.631   2.993   0.834 -2.1053  1.5165  0.0433
13599SOL    HW243791   3.510   2.957   0.937 -0.9435 -1.6332  0.3680
13600SOL     OW43792   7.861   8.789   0.751  0.1817 -0.1471  0.3774
13600SOL    HW143793   7.863   8.721   0.824  1.3138 -1.3027 -0.7091
13600SOL    HW243794   7.954   8.820   0.733  0.2646 -1.9273 -2.4702
13601SOL     OW43795   9.534   0.126   1.550  0.8878  0.2948 -0.0566
13601SOL    HW143796   9.582   0.127   1.462 -0.1536  0.7359 -0.6189
13601SOL    HW243797   9.438   0.150   1.537 -0.7270 -5.2502  0.3247
13602SOL     OW43798   9.668   2.464   1.272  0.1781 -0.2740  0.1461
13602SOL    HW143799   9.671   2.366   1.250  1.0481  0.2354 -2.1468
13602SOL    HW243800   9.573   2.495   1.272 -0.0123 -0.8332 -0.5983
13604SOL     OW43801   0.349   3.264   3.284  0.8191  0.0159 -0.4468
13604SOL    HW143802   0.314   3.345   3.237 -1.9224  1.0702  3.2186
13604SOL    HW243803   0.300   3.183   3.252  1.1250  0.2627 -1.5753
13605SOL     OW43804   0.177   7.510   3.357  0.4537 -0.6010  0.0531
13605SOL    HW143805   0.217   7.582   3.413 -1.8859  1.5723 -0.9550
13605SOL    HW243806   0.103   7.466   3.408 -1.2931  0.9899 -1.0481
13606SOL     OW43807   7.676   9.758   1.790  0.7246 -0.7768 -0.1610
13606SOL    HW143808   7.652   9.851   1.816  1.5637 -0.7477  0.5023
13606SOL    HW243809   7.592   9.707   1.769  0.2904  0.1979 -0.7965
13607SOL     OW43810   9.989   5.242   2.981  0.2109 -0.7839 -0.9509
13607SOL    HW143811   9.928   5.312   3.018  1.2722 -0.0149 -0.6153
13607SOL    HW243812   9.949   5.152   2.995 -0.4168 -0.3572  0.0942
13608SOL     OW43813   8.632   3.488   0.931  0.3828  0.3934  0.5164
13608SOL    HW143814   8.653   3.583   0.910  0.6008  0.5794  1.5305
13608SOL    HW243815   8.553   3.485   0.993 -0.7234 -0.1643 -0.9084
13609SOL     OW43816   3.260   2.459   0.905  0.4448 -0.2109 -0.1000
13609SOL    HW143817   3.192   2.386   0.917 -1.9377  2.0626  0.5801
13609SOL    HW243818   3.238   2.512   0.824  0.6319  1.3514  0.8568
13610SOL     OW43819   9.604   6.465   2.677 -0.1176 -0.2285  0.3192
13610SOL    HW143820   9.684   6.525   2.681  0.6277 -1.3403  2.5018
13610SOL    HW243821   9.523   6.516   2.703  0.1037  0.4979 -0.3845
13611SOL     OW43822   2.862   1.073   2.586  0.1058  0.1725  0.0366
13611SOL    HW143823   2.853   1.046   2.682 -1.3213  1.8456  0.4101
13611SOL    HW243824   2.832   1.168   2.576  1.0386  0.2764 -1.9325
13613SOL     OW43825   8.863   9.022   0.177 -0.3697 -0.7135 -0.0449
13613SOL    HW143826   8.791   9.015   0.246 -2.0309  3.1439 -1.2910
13613SOL    HW243827   8.827   9.064   0.094  3.1181  0.6037 -0.9978
13614SOL     OW43828   2.193   3.121   2.371  0.2623 -0.7735 -0.2800
13614SOL    HW143829   2.118   3.156   2.316  1.6671  0.8173 -1.2085
13614SOL    HW243830   2.220   3.189   2.439  1.6497 -0.8673 -0.7308
13615SOL     OW43831   9.484   8.762   3.147  0.3384  0.3859 -0.2120
13615SOL    HW143832   9.543   8.840   3.168 -1.9861  2.1220 -0.0588
13615SOL    HW243833   9.392   8.778   3.183 -1.4971 -0.2802 -4.3957
13616SOL     OW43834   8.198   2.289   3.283 -0.5692  0.4323  0.2131
13616SOL    HW143835   8.140   2.370   3.280 -1.1317  0.0569  0.8472
13616SOL    HW243836   8.143   2.207   3.266  0.1777  0.2605 -1.4698
13618SOL     OW43837   2.461   5.377   3.185 -0.4837 -0.0379 -0.6231
13618SOL    HW143838   2.530   5.449   3.191 -1.2471  0.4971  2.7737
13618SOL    HW243839   2.498   5.300   3.134  2.9563 -0.1258  1.8182
13619SOL     OW43840   8.268   6.265   3.029  0.3326 -0.4410  0.0111
13619SOL    HW143841   8.169   6.280   3.029  0.1522 -1.5793 -0.4230
13619SOL    HW243842   8.295   6.219   2.945  0.9611 -1.8272  0.9438
13621SOL     OW43843   7.571   1.899   1.827 -0.2495 -0.2342 -0.0945
13621SOL    HW143844   7.620   1.812   1.833 -1.1504 -0.7696 -0.4226
13621SOL    HW243845   7.615   1.966   1.886  0.3400 -0.9658  0.3044
13622SOL     OW43846   2.964   2.488   1.256  0.1835  0.1490  0.1720
13622SOL    HW143847   2.913   2.409   1.290  0.1467  0.9298  2.0321
13622SOL    HW243848   3.057   2.486   1.292  0.3965  0.5850 -0.3381
13623SOL     OW43849   2.131   5.836   0.264  0.3337 -0.2372 -0.2860
13623SOL    HW143850   2.223   5.804   0.239 -0.4311 -2.8262  0.0298
13623SOL    HW243851   2.109   5.807   0.357 -0.6706  0.6567 -0.2329
13624SOL     OW43852   5.339   1.468   1.747  0.0475 -0.3406  0.2433
13624SOL    HW143853   5.431   1.438   1.776 -0.0244 -1.3219 -0.5144
13624SOL    HW243854   5.271   1.404   1.782 -0.1945 -0.5722 -0.6355
13626SOL     OW43855   4.518   0.975   0.227  0.0672  0.7067  0.1909
13626SOL    HW143856   4.527   0.966   0.128 -0.6757 -0.4375  0.2179
13626SOL    HW243857   4.603   0.945   0.271 -0.7923 -2.0655  0.0491
13627SOL     OW43858   4.368   4.499   5.635 -0.1401  0.6737  0.2372
13627SOL    HW143859   4.307   4.569   5.671  0.6977  0.9690  1.1104
13627SOL    HW243860   4.328   4.459   5.552 -2.0825 -0.0001  1.4622
13628SOL     OW43861   0.146   7.881   3.693  0.0465 -0.2002 -0.0955
13628SOL    HW143862   0.115   7.972   3.664  2.5684  0.4116 -1.0275
13628SOL    HW243863   0.155   7.822   3.613 -0.9661 -1.0827  0.4379
13629SOL     OW43864   7.248   0.822   0.133 -0.2500  0.6733  0.0567
13629SOL    HW143865   7.317   0.765   0.087 -0.9522  0.4508 -0.7268
13629SOL    HW243866   7.292   0.903   0.171  0.6422 -0.0399  0.5663
13630SOL     OW43867   3.501   9.818   0.307 -0.1139 -0.5164  0.0972
13630SOL    HW143868   3.581   9.797   0.363 -0.4853 -0.2940  0.7227
13630SOL    HW243869   3.425   9.845   0.367 -0.4785 -0.1537 -0.5223
13631SOL     OW43870   7.024   0.512   3.046  0.1287  0.4592  0.0575
13631SOL    HW143871   7.071   0.536   3.131  0.1194  1.7792 -0.3008
13631SOL    HW243872   7.084   0.456   2.989  0.7274  0.9117  0.2430
13632SOL     OW43873   1.610   8.832   0.284 -0.0319  0.4290 -0.2029
13632SOL    HW143874   1.533   8.879   0.328 -0.9012  0.7974 -2.0519
13632SOL    HW243875   1.579   8.744   0.249  1.1471 -0.7580  1.6392
13634SOL     OW43876   2.101   8.646   2.328 -0.1186  0.0924 -0.0143
13634SOL    HW143877   2.144   8.565   2.289 -1.2369 -0.0978 -0.8806
13634SOL    HW243878   2.143   8.728   2.289  1.0025 -0.0506  0.8510
13637SOL     OW43879   2.462   1.084   2.550 -0.4175 -0.0347  0.2654
13637SOL    HW143880   2.435   1.012   2.613  0.2430  0.2344  0.8517
13637SOL    HW243881   2.494   1.043   2.464 -0.3206 -0.4280  0.4893
13638SOL     OW43882   7.223   9.573   4.055  0.6519  0.3892 -0.2915
13638SOL    HW143883   7.137   9.553   4.102 -0.2537  0.6135 -1.8000
13638SOL    HW243884   7.283   9.494   4.059  0.6497  0.4620  1.3524
13639SOL     OW43885   8.844   5.413   2.026  0.0168  0.3638  0.5711
13639SOL    HW143886   8.941   5.386   2.026  0.1343  0.7538  2.0138
13639SOL    HW243887   8.789   5.336   1.993  0.7321 -0.1785  0.6133
13641SOL     OW43888   2.296   0.216   1.719 -0.6755 -0.3631 -0.0660
13641SOL    HW143889   2.285   0.129   1.768  0.3976 -0.2746  0.3501
13641SOL    HW243890   2.296   0.198   1.620 -0.1651 -0.8891  0.0194
13644SOL     OW43891   0.201   1.765   2.661  0.1146  0.4519  0.8498
13644SOL    HW143892   0.141   1.686   2.674 -0.1333  0.3798 -0.5964
13644SOL    HW243893   0.186   1.831   2.734  0.1645 -0.7389  1.9467
13645SOL     OW43894   8.397   4.567   0.526  0.2131  0.3648  0.6739
13645SOL    HW143895   8.358   4.510   0.454  0.4106 -1.0787  1.6879
13645SOL    HW243896   8.342   4.650   0.536  0.7552  1.0620 -1.7953
13646SOL     OW43897   3.332   2.839   2.631 -0.3055  0.3141 -0.0305
13646SOL    HW143898   3.402   2.773   2.661  0.1739  0.6268 -0.4469
13646SOL    HW243899   3.276   2.865   2.709  0.8491  1.0198  0.5833
13647SOL     OW43900   8.492   9.143   0.452  0.7261 -0.1379  0.4801
13647SOL    HW143901   8.533   9.217   0.505 -0.0564  0.3223  0.4638
13647SOL    HW243902   8.396   9.132   0.479  0.1593  0.4726 -1.1896
13648SOL     OW43903   8.195   1.956   1.448  0.0602  0.1088 -0.0543
13648SOL    HW143904   8.188   2.053   1.472 -0.9889  0.7258 -2.6910
13648SOL    HW243905   8.113   1.908   1.481  0.1694  0.2800  0.4760
13649SOL     OW43906   9.267   4.306   0.914 -0.0886  0.0484  0.8158
13649SOL    HW143907   9.319   4.329   0.832  1.5575  1.0361  2.0912
13649SOL    HW243908   9.258   4.207   0.922 -0.7704 -0.0443 -0.8356
13650SOL     OW43909   7.972   2.905   2.629  0.0840  0.1146 -0.3303
13650SOL    HW143910   7.933   2.913   2.721  1.6681  0.1912  0.3472
13650SOL    HW243911   7.967   2.993   2.583  1.6368  0.7266  0.6488
13652SOL     OW43912   8.414   3.808   1.779 -0.1927  0.1058  0.8353
13652SOL    HW143913   8.367   3.732   1.735 -2.2216  2.3813 -1.0728
13652SOL    HW243914   8.365   3.835   1.861  0.2519 -0.3083  1.2421
13654SOL     OW43915   3.125   7.199   4.080  0.3641 -0.2095  0.0541
13654SOL    HW143916   3.176   7.271   4.032  0.9152 -2.5857 -3.1196
13654SOL    HW243917   3.027   7.216   4.072  0.4845  0.0731 -0.8880
13655SOL     OW43918   0.642   2.531   2.542  0.0971 -0.2949 -0.6316
13655SOL    HW143919   0.553   2.576   2.544  1.0962  1.6863  0.7226
13655SOL    HW243920   0.634   2.445   2.490 -2.1068  0.8304 -2.2874
13657SOL     OW43921   4.065   4.614   1.885 -0.5504 -0.4174 -0.1806
13657SOL    HW143922   4.009   4.588   1.964  0.7416 -0.7264  0.6429
13657SOL    HW243923   4.082   4.533   1.829 -0.6915 -0.3767 -0.2837
13658SOL     OW43924   7.945   9.722   2.221  0.3734 -0.1173 -0.7101
13658SOL    HW143925   7.864   9.725   2.163  0.1857  1.9420 -0.3492
13658SOL    HW243926   8.023   9.761   2.172  1.2879 -2.4048 -1.1920
13659SOL     OW43927   0.558   0.213   3.610 -0.0575 -0.3829  0.1714
13659SOL    HW143928   0.625   0.216   3.684 -0.9825  0.1852  0.9890
13659SOL    HW243929   0.579   0.136   3.550  0.4593 -1.0979  1.2518
13660SOL     OW43930   2.035   2.066   4.403  0.3097 -1.1004 -0.4531
13660SOL    HW143931   1.978   2.127   4.458  3.1145  0.9635  0.2856
13660SOL    HW243932   1.980   2.025   4.330 -2.2545  0.2290  0.6775
13661SOL     OW43933   1.625   2.484   3.577 -0.3174 -0.1514  0.4531
13661SOL    HW143934   1.667   2.496   3.666 -0.8818  0.5452  0.6322
13661SOL    HW243935   1.696   2.481   3.506  0.3413 -3.5298  1.1802
13662SOL     OW43936   0.059   1.283   3.014 -0.2439  0.4439 -0.2607
13662SOL    HW143937  -0.005   1.336   2.958 -0.1333  0.1753 -0.6478
13662SOL    HW243938   0.110   1.220   2.955  1.4435  1.6955 -0.1917
13664SOL     OW43939   7.795   5.273   0.870  0.0705 -0.4133 -0.4524
13664SOL    HW143940   7.889   5.306   0.862 -0.5305  1.2143 -0.9023
13664SOL    HW243941   7.785   5.220   0.955  1.1296  0.2871  0.1090
13666SOL     OW43942   9.973   2.868   1.927 -0.3982  0.3923 -0.6709
13666SOL    HW143943  10.026   2.783   1.939  0.0342  0.6605 -0.6808
13666SOL    HW243944   9.918   2.884   2.009 -1.9471 -0.9213 -1.4449
13667SOL     OW43945   1.946   6.739   4.191  0.0129 -0.5037 -0.4079
13667SOL    HW143946   1.948   6.724   4.093  1.3376  1.2183 -0.6796
13667SOL    HW243947   1.998   6.667   4.237  0.7217 -0.4512 -1.1092
13668SOL     OW43948   8.744   0.722   3.002  0.1280  0.0683  0.0594
13668SOL    HW143949   8.690   0.695   2.922 -0.8284 -0.1992  0.7846
13668SOL    HW243950   8.695   0.697   3.086  2.0410 -1.5092  0.7371
13669SOL     OW43951   1.533   7.919   2.841  0.1383  1.0512  0.0998
13669SOL    HW143952   1.459   7.987   2.846 -0.7553 -0.0170  1.7422
13669SOL    HW243953   1.496   7.832   2.810  0.7586  0.5878  0.6495
13670SOL     OW43954   9.013   9.128   4.189 -0.8143  0.0965 -0.0540
13670SOL    HW143955   8.936   9.065   4.179 -0.3343 -0.3865 -0.7856
13670SOL    HW243956   9.034   9.169   4.100  0.8962 -1.1102 -0.2432
13671SOL     OW43957   3.014   8.710   3.331 -0.2647  0.3249 -0.5304
13671SOL    HW143958   2.921   8.685   3.358 -0.2705 -0.7233 -1.5104
13671SOL    HW243959   3.078   8.678   3.401 -0.7258  2.2433  0.8407
13672SOL     OW43960   1.835   5.280   2.862  0.4714  0.6973  0.1789
13672SOL    HW143961   1.821   5.198   2.918 -0.7679  1.3285  0.8332
13672SOL    HW243962   1.809   5.261   2.767 -0.5379  0.5398  0.4822
13673SOL     OW43963   0.280   8.686   1.770  0.5488  0.1557 -0.1478
13673SOL    HW143964   0.316   8.689   1.677  1.6141 -1.2732  0.2057
13673SOL    HW243965   0.355   8.668   1.834 -0.4066 -0.3353  0.8428
13676SOL     OW43966   9.024   3.695   2.791 -0.3001  0.2383  0.2975
13676SOL    HW143967   9.078   3.776   2.813 -0.7935  0.2006  1.7295
13676SOL    HW243968   8.939   3.697   2.844 -1.2961 -0.1421 -1.2638
13677SOL     OW43969   0.889   1.286   0.220 -0.1994  0.2866  0.3319
13677SOL    HW143970   0.965   1.223   0.230 -1.5373 -1.6252 -1.1249
13677SOL    HW243971   0.923   1.376   0.193  1.4985 -0.6420 -0.6884
13678SOL     OW43972   6.075   1.292   2.391  0.0151 -0.1062 -0.0766
13678SOL    HW143973   6.086   1.360   2.464  0.0264 -0.3929  0.1918
13678SOL    HW243974   5.994   1.314   2.337 -1.1891 -1.0244  1.2804
13680SOL     OW43975   0.071   5.170   2.558 -0.6190  0.1496 -0.2536
13680SOL    HW143976  -0.015   5.202   2.516 -1.7061 -1.3401  0.8060
13680SOL    HW243977   0.133   5.248   2.569 -2.0600  1.3572 -0.4659
13681SOL     OW43978   4.407   2.342   1.852  0.0239  0.4558 -0.1813
13681SOL    HW143979   4.424   2.433   1.889  0.3587 -0.2690  1.5068
13681SOL    HW243980   4.474   2.278   1.890 -2.2792 -1.1451  1.2870
13682SOL     OW43981   9.810   4.229   3.471 -0.0192  0.3702  0.1082
13682SOL    HW143982   9.758   4.176   3.538  1.2194 -1.8821 -0.6389
13682SOL    HW243983   9.815   4.178   3.385  4.0540  0.1091  0.3978
13683SOL     OW43984   2.761   6.909   2.194  0.1368  0.0628 -0.1527
13683SOL    HW143985   2.662   6.908   2.210 -0.0181  0.4988 -1.0371
13683SOL    HW243986   2.779   6.905   2.096  1.0001  0.1368 -0.0032
13684SOL     OW43987   8.001   0.494   1.750 -0.2404 -0.0614  0.4711
13684SOL    HW143988   8.034   0.573   1.699  0.5941 -1.8239 -1.8350
13684SOL    HW243989   7.902   0.502   1.764  0.0127  1.8905  1.2179
13685SOL     OW43990   2.439   9.789   2.663 -0.0271  0.0870  0.7801
13685SOL    HW143991   2.361   9.853   2.668 -0.8282 -0.9119  1.1797
13685SOL    HW243992   2.523   9.841   2.646 -0.8551  1.1287 -0.2337
13686SOL     OW43993   7.422   1.183   0.444 -0.5630  0.0931  0.2611
13686SOL    HW143994   7.519   1.178   0.469 -0.3278 -1.0209 -0.8487
13686SOL    HW243995   7.400   1.275   0.414 -0.1249  0.6557  1.6219
13687SOL     OW43996   1.243   2.357   0.666 -0.4103 -0.4610 -0.6895
13687SOL    HW143997   1.194   2.410   0.736 -0.1282 -0.1898 -0.6978
13687SOL    HW243998   1.178   2.322   0.599 -0.8753 -1.9436  0.5039
13688SOL     OW43999   8.815   6.504   3.886  0.4722 -0.2245  0.3168
13688SOL    HW144000   8.733   6.511   3.829  0.0822 -0.9795  0.7745
13688SOL    HW244001   8.895   6.493   3.827 -0.0191 -1.8624 -0.0732
13689SOL     OW44002   1.573   0.335   2.164 -0.0129  0.0137  0.2543
13689SOL    HW144003   1.572   0.296   2.256 -0.6330  0.2953  0.3720
13689SOL    HW244004   1.482   0.325   2.123 -0.0812  1.0234  0.1570
13690SOL     OW44005   5.981   7.756   2.324 -0.0575  0.3950 -0.0485
13690SOL    HW144006   6.077   7.735   2.304  0.2817  1.2072  0.7092
13690SOL    HW244007   5.947   7.694   2.395 -0.7648 -1.3665 -1.8649
13691SOL     OW44008   0.209   0.676   0.850  0.3493  0.5769  0.0065
13691SOL    HW144009   0.145   0.744   0.885  0.9609  1.0768  0.1625
13691SOL    HW244010   0.269   0.717   0.782  2.8667  1.0788  2.4152
13692SOL     OW44011   7.796   8.724   2.503  0.2517 -0.0815  0.2225
13692SOL    HW144012   7.849   8.764   2.427 -0.2285  0.3887  0.1330
13692SOL    HW244013   7.823   8.769   2.588 -0.5199  0.6604  0.0776
13693SOL     OW44014   7.619   2.477   1.406 -0.4450  0.1486  0.2151
13693SOL    HW144015   7.565   2.503   1.326 -2.2249 -1.0379  0.9866
13693SOL    HW244016   7.642   2.380   1.401  1.8383  0.6940 -0.2076
13695SOL     OW44017   4.414   4.237   3.386  0.8097  0.3542 -0.5869
13695SOL    HW144018   4.475   4.306   3.426  2.1072 -0.1232 -1.7306
13695SOL    HW244019   4.467   4.156   3.362 -0.5048 -0.5665 -0.4237
13696SOL     OW44020   4.483   7.981   4.200  0.0056 -0.4411  0.4266
13696SOL    HW144021   4.464   8.056   4.138 -0.2140 -1.5363 -0.8574
13696SOL    HW244022   4.402   7.923   4.209  0.4203 -0.9883  0.7354
13697SOL     OW44023   1.522   6.018   0.419  0.3804  0.0522  0.4272
13697SOL    HW144024   1.594   6.052   0.479 -0.0033  0.0564  0.8968
13697SOL    HW244025   1.527   5.919   0.414 -0.1264 -0.0217  1.1827
13698SOL     OW44026   3.732   9.570   2.781 -0.4185  0.2205 -0.3900
13698SOL    HW144027   3.650   9.553   2.727 -0.5784 -1.0035  0.2105
13698SOL    HW244028   3.748   9.492   2.842  1.0718  0.5471 -0.3555
13699SOL     OW44029   0.950   8.241   1.502  0.8242  0.1207  0.1915
13699SOL    HW144030   0.988   8.314   1.447  1.7739  0.2459  0.9978
13699SOL    HW244031   1.006   8.227   1.584 -1.0129  0.5121  1.5684
13700SOL     OW44032   2.663   1.209   3.756  0.3984  0.0851  0.7746
13700SOL    HW144033   2.732   1.153   3.711 -0.4958 -1.0601  0.8106
13700SOL    HW244034   2.624   1.159   3.833  2.4809  2.3088  3.3923
13703SOL     OW44035   1.469   1.179   2.822  0.2392  0.4721  0.1486
13703SOL    HW144036   1.510   1.112   2.883  1.0195  0.9064  0.0977
13703SOL    HW244037   1.462   1.141   2.729 -0.8340 -0.1413  0.4626
13704SOL     OW44038   9.663   0.050   1.020 -0.2304  0.4718 -0.4257
13704SOL    HW144039   9.716   0.126   1.058 -0.2348  0.1253  0.2818
13704SOL    HW244040   9.567   0.075   1.016 -0.2127  0.5561 -0.3297
13705SOL     OW44041   1.418   7.379   1.554 -0.2913  0.0141 -0.3784
13705SOL    HW144042   1.354   7.329   1.612 -0.0501 -0.4424 -0.5111
13705SOL    HW244043   1.493   7.319   1.526  0.5062  0.6990  0.2479
13706SOL     OW44044   4.331   4.481   2.257 -0.5671 -0.5806  0.0535
13706SOL    HW144045   4.354   4.434   2.172  1.0994 -0.7127  0.5487
13706SOL    HW244046   4.345   4.420   2.334  0.6525  0.3824  0.6214
13707SOL     OW44047   0.781   6.591   2.338  0.3413  0.0766  0.4922
13707SOL    HW144048   0.812   6.665   2.398  0.8137 -0.1864  0.5652
13707SOL    HW244049   0.811   6.609   2.244 -2.4070  1.7346 -0.1592
13709SOL     OW44050   4.109   7.736   2.101  0.0956  0.2846 -0.9185
13709SOL    HW144051   4.190   7.794   2.104 -0.5002  1.1193 -0.6209
13709SOL    HW244052   4.120   7.660   2.165  0.5304  0.5471 -0.6779
13710SOL     OW44053   8.665   8.524   2.949  0.2087  0.2596  0.3882
13710SOL    HW144054   8.750   8.542   2.997  0.2997 -1.1267  0.7615
13710SOL    HW244055   8.605   8.604   2.957  2.4331  2.2474 -2.0422
13711SOL     OW44056   1.565   3.743   1.378  0.1120 -0.1310  0.5543
13711SOL    HW144057   1.548   3.765   1.474 -0.2515 -0.9996  0.6990
13711SOL    HW244058   1.615   3.657   1.372 -0.7008 -0.5703 -0.0575
13712SOL     OW44059   8.006   5.003   0.614 -0.3873  0.4048 -0.7452
13712SOL    HW144060   7.978   5.098   0.598 -2.3017 -0.2526 -1.5088
13712SOL    HW244061   7.938   4.959   0.673  0.8647 -0.2942  0.1825
13713SOL     OW44062   9.739   9.462   0.974  0.3832 -0.0785  0.4847
13713SOL    HW144063   9.743   9.434   1.070  1.2921 -0.5115  0.3300
13713SOL    HW244064   9.738   9.380   0.916 -1.1758  0.1682  0.1547
13714SOL     OW44065   2.415   7.633   0.886  0.1816 -0.1231  0.5612
13714SOL    HW144066   2.425   7.682   0.973  0.4341  0.3726  0.2522
13714SOL    HW244067   2.440   7.537   0.899  0.4564  0.0045  0.9789
13715SOL     OW44068   1.659   3.647   0.748 -0.0890 -0.5236 -0.0787
13715SOL    HW144069   1.757   3.629   0.745  0.0551  0.0480  1.2710
13715SOL    HW244070   1.616   3.610   0.665  1.2427 -0.8553 -0.6260
13719SOL     OW44071   1.927   4.816   0.259 -0.0125  0.4904 -0.6630
13719SOL    HW144072   2.027   4.812   0.268 -0.1369  0.8737  1.1479
13719SOL    HW244073   1.896   4.744   0.197  1.4448  0.7990 -1.7759
13720SOL     OW44074   1.795   1.957   2.037  0.4889  0.1342  0.3029
13720SOL    HW144075   1.722   1.973   2.103 -0.6084  0.5415 -1.0049
13720SOL    HW244076   1.760   1.966   1.944  1.7904 -1.4444 -0.3756
13721SOL     OW44077   8.225   8.919   3.053 -0.3302 -0.3880 -0.3859
13721SOL    HW144078   8.191   8.971   2.974 -0.2866 -1.0715 -0.8632
13721SOL    HW244079   8.154   8.912   3.122  0.0243  1.2783  0.1823
13722SOL     OW44080   1.734   9.275   3.345 -0.3223 -0.3089 -0.3503
13722SOL    HW144081   1.818   9.242   3.301 -2.0655 -0.9741 -3.3703
13722SOL    HW244082   1.751   9.362   3.389  1.4134  0.7994 -3.0928
13723SOL     OW44083   1.857   5.845   3.234  0.2732  0.1246  0.5996
13723SOL    HW144084   1.925   5.777   3.208  0.0976  0.3588 -0.4857
13723SOL    HW244085   1.844   5.842   3.333  1.3762 -0.3715  0.7445
13725SOL     OW44086   6.941   6.554   2.457 -0.4092  0.3012  0.3505
13725SOL    HW144087   6.917   6.460   2.435  1.3169 -0.3398  1.0987
13725SOL    HW244088   6.865   6.615   2.433 -1.3965 -1.2276 -0.4646
13726SOL     OW44089   1.171   9.367   1.030 -0.7466  0.5912 -0.1169
13726SOL    HW144090   1.160   9.268   1.033 -0.6599  0.5023 -2.2246
13726SOL    HW244091   1.263   9.389   0.996 -0.9672  1.3969 -0.1845
13727SOL     OW44092   7.963   9.946   3.833 -0.4176 -0.3050 -0.0090
13727SOL    HW144093   7.950   9.859   3.787 -0.4033 -0.5996  0.5410
13727SOL    HW244094   7.895   9.956   3.906 -0.8870  0.4683 -0.5493
13728SOL     OW44095   3.038   9.135   2.934 -0.2063  0.0275  0.2319
13728SOL    HW144096   3.047   9.036   2.922 -2.7313 -0.0966 -0.9813
13728SOL    HW244097   2.942   9.158   2.948  0.3294  2.3492  0.2467
13730SOL     OW44098   5.310   7.909   3.319 -0.4046  0.0360 -0.2187
13730SOL    HW144099   5.290   7.968   3.242  4.0428 -0.1898 -1.7364
13730SOL    HW244100   5.292   7.814   3.293  0.6427  0.0023 -0.8654
13731SOL     OW44101   8.185   1.723   2.083 -0.1614  0.5815  0.1319
13731SOL    HW144102   8.182   1.665   2.001 -2.4670 -0.5605  0.9819
13731SOL    HW244103   8.264   1.698   2.139 -0.6577 -1.1704  0.0697
13732SOL     OW44104   9.380   5.565   1.124  0.1853  0.1745 -0.0339
13732SOL    HW144105   9.297   5.508   1.130 -0.4810  1.0986 -0.3878
13732SOL    HW244106   9.453   5.522   1.177 -1.0089  0.2043  1.6792
13733SOL     OW44107   7.464   6.967   2.878 -0.1808 -0.1506  0.1817
13733SOL    HW144108   7.449   6.960   2.779  1.3187  0.9732 -0.1316
13733SOL    HW244109   7.439   6.880   2.922 -2.6710 -0.0310 -0.9352
13736SOL     OW44110   8.069   5.990   1.665  0.1544  0.5083 -0.0199
13736SOL    HW144111   8.060   5.910   1.725  1.0696  0.1582 -0.3492
13736SOL    HW244112   8.068   5.961   1.570 -1.8045  1.1157 -0.2162
13737SOL     OW44113   3.282   6.727   3.710  0.2732  0.7276 -0.2497
13737SOL    HW144114   3.224   6.786   3.767  0.5129  0.8192 -0.0985
13737SOL    HW244115   3.356   6.782   3.671 -0.4374  0.8610 -1.4184
13738SOL     OW44116   0.670   1.760   1.864  0.0867 -0.2461  0.3077
13738SOL    HW144117   0.758   1.808   1.869 -0.3815  0.4730  2.1386
13738SOL    HW244118   0.610   1.808   1.799  0.1766  0.7410  0.9370
13740SOL     OW44119   7.325   0.317   4.201 -0.5372  0.2638 -0.3013
13740SOL    HW144120   7.380   0.280   4.276 -1.7140 -0.6653  0.1076
13740SOL    HW244121   7.324   0.417   4.208  1.0433  0.2916 -0.2802
13741SOL     OW44122   9.525   4.213   3.313 -0.0461  0.8619  0.0216
13741SOL    HW144123   9.503   4.240   3.406 -0.1748  2.9279 -0.5992
13741SOL    HW244124   9.624   4.213   3.300  0.0537 -1.0370  0.6128
13742SOL     OW44125   6.959   8.966   3.352 -0.2166 -0.4050  0.4652
13742SOL    HW144126   6.980   9.029   3.427  1.3001  2.2457 -2.0677
13742SOL    HW244127   7.044   8.943   3.304 -1.1120 -2.3949 -0.1997
13744SOL     OW44128   0.675   3.769   1.987  0.0751  0.7072  0.0678
13744SOL    HW144129   0.592   3.749   2.040 -0.4147 -0.3575 -1.0825
13744SOL    HW244130   0.650   3.818   1.903  0.7731  1.6881  0.4168
13746SOL     OW44131   6.834   8.064   3.920  0.4610 -0.7373 -0.2859
13746SOL    HW144132   6.911   8.003   3.901  0.8774  0.3011 -2.0583
13746SOL    HW244133   6.853   8.154   3.881 -0.0239  0.6361  2.5333
13748SOL     OW44134   7.080   0.686   2.773  0.2933 -0.1419 -0.2620
13748SOL    HW144135   7.015   0.696   2.848  0.2701  2.5065 -0.5850
13748SOL    HW244136   7.100   0.589   2.759 -0.0372 -0.7009  2.8481
13749SOL     OW44137   8.559   2.922   0.671 -0.1561  0.5382 -0.6615
13749SOL    HW144138   8.650   2.951   0.640 -0.2170  2.1095  0.5631
13749SOL    HW244139   8.563   2.902   0.769 -1.1913  0.8580 -0.5517
13750SOL     OW44140   6.350   0.017   0.900  0.7504  0.6142 -0.5201
13750SOL    HW144141   6.260   0.050   0.869  0.5706 -1.4686 -2.3352
13750SOL    HW244142   6.421   0.081   0.870  0.2848  0.0704 -2.8988
13751SOL     OW44143   0.750   0.153   2.992  0.1685 -0.2979  0.3357
13751SOL    HW144144   0.741   0.147   3.091 -0.8176 -1.2960  0.1993
13751SOL    HW244145   0.804   0.076   2.959  0.6711  0.1456  0.1137
13754SOL     OW44146   8.502   3.037   4.117  0.0602  0.1923 -0.1758
13754SOL    HW144147   8.474   3.113   4.175  0.2766  0.1207  0.0223
13754SOL    HW244148   8.428   3.015   4.053 -0.5768 -0.3900  0.7410
13755SOL     OW44149   2.283   6.660   0.431 -0.3375 -0.4683  0.1541
13755SOL    HW144150   2.265   6.758   0.422  0.5113 -0.0844  2.3673
13755SOL    HW244151   2.294   6.620   0.340 -0.3018  1.5494 -0.7573
13756SOL     OW44152   5.076   3.776   3.397  0.6968  0.6316  0.4876
13756SOL    HW144153   5.158   3.726   3.424  0.2229 -0.7237 -0.5422
13756SOL    HW244154   5.008   3.712   3.362 -0.0389  1.9738 -0.5768
13757SOL     OW44155   4.005   0.462   3.538  0.3041  0.5616 -0.1055
13757SOL    HW144156   4.037   0.464   3.633  0.0983  0.4920 -0.0349
13757SOL    HW244157   3.933   0.531   3.525 -0.9343 -0.6435  0.2412
13758SOL     OW44158   2.342   1.672   0.495  0.3602 -0.2171 -0.1075
13758SOL    HW144159   2.355   1.763   0.456 -0.9721  0.0927  0.1313
13758SOL    HW244160   2.416   1.612   0.465  0.1919  0.4227 -1.8930
13759SOL     OW44161   3.527   9.507   2.615 -0.6688  0.1967  0.3570
13759SOL    HW144162   3.591   9.436   2.585 -1.3536  0.2716 -1.3265
13759SOL    HW244163   3.445   9.504   2.559 -2.0323  0.3348  2.2725
13761SOL     OW44164   0.097   9.802   3.439 -0.1773 -0.7355 -0.2947
13761SOL    HW144165  -0.000   9.779   3.436 -0.3712  0.0985 -0.4036
13761SOL    HW244166   0.140   9.779   3.351  0.0243 -2.3700  0.1994
13763SOL     OW44167   8.976   0.326   1.169 -0.2731 -0.3242 -0.3438
13763SOL    HW144168   8.995   0.298   1.263 -0.3252 -1.0201 -0.5363
13763SOL    HW244169   9.038   0.400   1.143 -1.0738  0.7072  0.6399
13764SOL     OW44170   5.037   9.066   3.229  0.3156 -0.3146 -0.0745
13764SOL    HW144171   4.974   9.057   3.305 -0.7069 -0.1200 -0.8935
13764SOL    HW244172   4.999   9.128   3.160  1.9293  0.7545 -0.0257
13765SOL     OW44173   0.593   5.056   3.946  0.3431  0.2939 -0.5225
13765SOL    HW144174   0.660   4.982   3.934 -1.2973 -0.8002 -3.3063
13765SOL    HW244175   0.599   5.118   3.868 -0.0391  1.7070  0.5680
13766SOL     OW44176   9.044   8.764   2.561 -0.6095  0.2029 -0.7031
13766SOL    HW144177   9.086   8.848   2.528  0.9299 -0.5546 -0.6977
13766SOL    HW244178   9.035   8.768   2.661  0.0054  0.1243 -0.6420
13767SOL     OW44179  10.004   4.236   0.064  0.1099  0.1599  0.3324
13767SOL    HW144180   9.968   4.330   0.069 -0.3355  0.1457 -2.1014
13767SOL    HW244181   9.960   4.180   0.134  0.9058  1.9230  2.2841
13768SOL     OW44182   2.169   2.326   1.096  0.0808 -0.4115 -0.1675
13768SOL    HW144183   2.103   2.300   1.026  0.0430 -1.6114  0.3034
13768SOL    HW244184   2.229   2.248   1.116  0.0558 -0.1068  1.1635
13769SOL     OW44185   4.423   7.879   0.786  0.0912 -0.0078  0.3667
13769SOL    HW144186   4.461   7.822   0.859  0.5035 -0.4957 -0.2153
13769SOL    HW244187   4.329   7.904   0.808  0.0706 -0.5105  0.8611
13771SOL     OW44188   9.128   4.857   3.787  0.3593 -0.2732 -0.6969
13771SOL    HW144189   9.061   4.911   3.735 -0.4588 -0.1964  0.4211
13771SOL    HW244190   9.137   4.767   3.746 -1.5705 -0.8176  0.0350
13774SOL     OW44191   3.179   8.666   0.558 -0.4422 -0.1614 -0.1220
13774SOL    HW144192   3.263   8.656   0.612  0.9469  1.1783 -1.9434
13774SOL    HW244193   3.114   8.724   0.607  0.5421  0.5203  0.3930
13775SOL     OW44194   4.580   0.037   1.482  0.8133 -0.0425 -0.1975
13775SOL    HW144195   4.606  -0.002   1.570  0.1265 -0.9589 -0.3855
13775SOL    HW244196   4.639   0.001   1.410  0.9666  0.2199 -0.2044
13776SOL     OW44197   6.553   0.085   1.094  0.3391  0.1521 -0.1961
13776SOL    HW144198   6.471   0.056   1.044 -0.1965  2.1632 -0.4935
13776SOL    HW244199   6.561   0.031   1.178 -2.0233  0.8256  0.4892
13777SOL     OW44200   2.979   5.168   2.580  0.2499  0.3568 -0.0315
13777SOL    HW144201   3.044   5.244   2.587  0.5642  0.1744 -0.9256
13777SOL    HW244202   3.027   5.082   2.599 -0.0955  0.3787  0.9373
13778SOL     OW44203   4.711   9.713   3.216 -0.0203  0.6321 -0.0283
13778SOL    HW144204   4.693   9.680   3.309 -0.9949  1.1974 -0.0141
13778SOL    HW244205   4.700   9.637   3.151 -0.0265  0.4039  0.2367
13779SOL     OW44206   2.008   0.237   3.395  0.0252  0.3288  0.0604
13779SOL    HW144207   1.914   0.261   3.418  0.7987  2.0596  1.5129
13779SOL    HW244208   2.048   0.311   3.340  0.7245 -0.0991 -0.0071
13780SOL     OW44209   8.669   1.920   1.494  0.4610  0.4090  0.1734
13780SOL    HW144210   8.615   2.001   1.520  0.1400  0.0859  0.5084
13780SOL    HW244211   8.638   1.888   1.404  0.5299  0.6071  0.0774
13781SOL     OW44212   2.939   3.037   1.689  0.1600 -0.1819  0.8172
13781SOL    HW144213   3.019   2.993   1.647 -0.6404 -1.3959  0.5564
13781SOL    HW244214   2.970   3.108   1.752  1.4488 -0.5012  0.5579
13783SOL     OW44215   8.614   1.297   0.527  0.5511 -0.0563 -0.2382
13783SOL    HW144216   8.549   1.269   0.457  0.3397  1.2153 -0.5591
13783SOL    HW244217   8.680   1.223   0.542  1.0654 -0.0786 -2.3287
13784SOL     OW44218   3.618   3.200   1.663  0.5130  0.4377 -0.5728
13784SOL    HW144219   3.645   3.216   1.568  0.6440 -0.1338 -0.6346
13784SOL    HW244220   3.593   3.287   1.706  2.4367  0.9712 -0.5120
13785SOL     OW44221   2.060   5.602   3.559  0.3100  0.4979  0.4938
13785SOL    HW144222   2.111   5.588   3.474  0.3194  1.2076  0.3769
13785SOL    HW244223   1.970   5.559   3.550  1.1157 -1.3114  0.9464
13787SOL     OW44224   3.170   3.293   3.181 -0.2058 -1.0736  0.1461
13787SOL    HW144225   3.155   3.261   3.274  0.1623  0.7651  0.8578
13787SOL    HW244226   3.100   3.361   3.157 -0.6067 -1.9010 -1.1077
13788SOL     OW44227   7.788   3.158   4.079 -0.1695 -0.0068 -0.0688
13788SOL    HW144228   7.753   3.200   4.163 -2.6783 -0.9347 -0.5855
13788SOL    HW244229   7.805   3.061   4.096 -0.0249 -0.0439 -0.4331
13789SOL     OW44230   1.458   4.099   3.126 -0.6179  0.0763 -0.0782
13789SOL    HW144231   1.431   4.180   3.179 -0.1841 -0.7331  1.4108
13789SOL    HW244232   1.393   4.026   3.141 -0.0332 -0.4326 -0.0003
13791SOL     OW44233   7.011   8.409   3.590  0.3401  0.3953 -0.1869
13791SOL    HW144234   6.935   8.474   3.582  0.2625  0.1934 -1.1618
13791SOL    HW244235   7.092   8.448   3.546  1.2949  1.3446  2.3463
13792SOL     OW44236   2.177   7.814   2.692 -0.4028 -0.1876 -0.3413
13792SOL    HW144237   2.241   7.889   2.675 -1.1893  0.7659  0.8052
13792SOL    HW244238   2.161   7.805   2.790  0.0442 -2.1896 -0.4209
13794SOL     OW44239   6.310   8.017   3.192  0.1641  0.2852 -0.2451
13794SOL    HW144240   6.401   8.024   3.233 -0.2550 -0.2465  0.8175
13794SOL    HW244241   6.301   7.927   3.149 -0.7023 -0.6625  1.8280
13795SOL     OW44242   0.621   7.708   1.336 -0.3522 -0.0068  0.6237
13795SOL    HW144243   0.586   7.622   1.299  0.1313 -0.6208  1.5491
13795SOL    HW244244   0.691   7.746   1.275  1.3229 -1.6365  1.4828
13796SOL     OW44245   6.514   8.721   2.816  0.2347 -0.4379 -0.0650
13796SOL    HW144246   6.436   8.716   2.754 -0.1706 -0.2229  0.4219
13796SOL    HW244247   6.497   8.791   2.885  1.0064 -0.1562 -0.1575
13797SOL     OW44248   1.143   1.490   1.984 -0.0148  0.6422 -0.0773
13797SOL    HW144249   1.235   1.499   1.945  0.0097 -0.8830 -0.3865
13797SOL    HW244250   1.148   1.439   2.070 -0.4437  1.5196  0.4809
13800SOL     OW44251   5.706   0.490   3.526  0.0027  0.4667  0.0646
13800SOL    HW144252   5.682   0.579   3.564  1.2132  0.2441  1.3869
13800SOL    HW244253   5.773   0.445   3.585  0.3150 -0.8071 -1.2231
13801SOL     OW44254   1.016   4.739   0.796  0.1493  0.0287  0.0036
13801SOL    HW144255   0.953   4.798   0.745  0.0792  0.4043  0.5193
13801SOL    HW244256   0.976   4.649   0.808  0.1903 -0.0828 -0.6594
13802SOL     OW44257   9.838   9.286   3.858 -0.0655 -0.0994 -0.1438
13802SOL    HW144258   9.763   9.349   3.878  1.8615  2.4282 -0.6643
13802SOL    HW244259   9.917   9.310   3.915  0.3676 -2.7479  0.4272
13803SOL     OW44260   3.452   9.303   4.440  0.1723 -0.0228 -0.3365
13803SOL    HW144261   3.522   9.343   4.380 -0.2465 -0.2371 -0.9805
13803SOL    HW244262   3.493   9.228   4.493  1.4963  2.5979  2.4653
13804SOL     OW44263   2.291   5.412   3.589  0.2793 -0.1550 -0.5825
13804SOL    HW144264   2.238   5.363   3.658  0.1421  2.0778  0.9596
13804SOL    HW244265   2.383   5.373   3.583  0.1922 -0.5684  0.6700
13805SOL     OW44266   1.633   2.802   4.217  0.5991 -0.4424  0.3604
13805SOL    HW144267   1.538   2.782   4.243  0.9435  1.2666  3.1555
13805SOL    HW244268   1.634   2.849   4.129 -1.3220  1.2075  1.1722
13806SOL     OW44269   2.677   9.487   3.499 -0.0983  0.3624  0.2251
13806SOL    HW144270   2.611   9.412   3.489  0.1337 -0.0766  1.7240
13806SOL    HW244271   2.760   9.466   3.448  0.0810 -0.5733  0.8756
13809SOL     OW44272   8.881   2.652   4.076  0.1387 -0.1363 -0.3423
13809SOL    HW144273   8.930   2.638   4.163  0.3331 -0.5828 -0.5214
13809SOL    HW244274   8.938   2.619   4.001  0.4756  1.3451 -0.7564
13810SOL     OW44275   1.988   5.538   0.279 -0.1536  0.2632 -0.2909
13810SOL    HW144276   1.916   5.598   0.243  2.0773  2.6341 -0.9761
13810SOL    HW244277   2.041   5.500   0.204  0.1702 -0.3831  0.2565
13811SOL     OW44278   1.074   8.680   2.061 -0.8052  0.1805 -0.5146
13811SOL    HW144279   1.142   8.753   2.070 -0.4491 -0.1904 -0.1841
13811SOL    HW244280   1.032   8.664   2.151 -2.0994  1.1485 -0.9226
13813SOL     OW44281   1.334   5.059   2.982  0.7932 -0.5214 -0.3832
13813SOL    HW144282   1.350   5.019   3.072  1.7636 -1.8327 -1.1092
13813SOL    HW244283   1.404   5.027   2.919  0.0152  0.2338 -1.6587
13814SOL     OW44284   2.965   2.637   2.930  0.2301 -0.3447  0.1773
13814SOL    HW144285   2.934   2.542   2.921  1.2264 -0.6750  0.2770
13814SOL    HW244286   2.888   2.698   2.911 -0.5470 -1.1722  0.6315
13815SOL     OW44287   8.575   9.347   3.181  0.5071  0.6330  0.1279
13815SOL    HW144288   8.630   9.275   3.221 -0.2814 -1.7203 -2.8091
13815SOL    HW244289   8.488   9.309   3.150 -0.1315  2.9389 -1.0409
13816SOL     OW44290   1.389   7.706   0.709  0.1972 -0.5405 -0.2762
13816SOL    HW144291   1.361   7.733   0.617  0.6592 -0.7925 -0.4942
13816SOL    HW244292   1.368   7.779   0.773  0.9216  0.1132 -0.7672
13817SOL     OW44293   8.996   3.544   0.676 -0.3179 -0.3566  0.4704
13817SOL    HW144294   8.954   3.456   0.700 -0.5689 -0.1573  0.7675
13817SOL    HW244295   9.038   3.537   0.585 -0.1605 -0.8428  0.5785
13821SOL     OW44296   9.266   9.643   2.683 -0.2328 -0.1725 -0.1057
13821SOL    HW144297   9.278   9.549   2.715 -0.8773 -0.2479 -0.0752
13821SOL    HW244298   9.334   9.663   2.612 -1.7767 -1.5494 -2.0447
13822SOL     OW44299   1.283   0.169   4.367  0.0211 -0.0923 -0.4375
13822SOL    HW144300   1.226   0.087   4.374  1.1913 -1.1290 -2.6152
13822SOL    HW244301   1.375   0.149   4.400  0.1654  0.5316 -0.4459
13823SOL     OW44302   2.085   5.570   3.998  0.1348  0.6883 -0.2917
13823SOL    HW144303   2.096   5.645   3.933  1.4185  0.4824 -0.3237
13823SOL    HW244304   2.111   5.600   4.090  2.7954 -0.2837 -0.6602
13824SOL     OW44305   4.122   8.718   0.619 -0.7291 -0.5611 -0.2709
13824SOL    HW144306   4.023   8.703   0.619 -0.7999 -0.1100 -0.8927
13824SOL    HW244307   4.160   8.690   0.532 -0.1419 -1.7743  0.3691
13825SOL     OW44308   3.302   3.520   1.326 -0.5836  0.1643 -0.2274
13825SOL    HW144309   3.366   3.564   1.389 -1.5080  1.0046  0.1370
13825SOL    HW244310   3.233   3.470   1.379 -0.8725  0.1741 -0.5950
13826SOL     OW44311   5.165   1.567   1.576 -0.4759  0.3336 -0.1787
13826SOL    HW144312   5.233   1.539   1.643  0.4010  1.0180 -0.7693
13826SOL    HW244313   5.144   1.664   1.587 -1.0712  0.2182 -0.2480
13827SOL     OW44314   1.629   4.969   4.077 -0.1903 -0.4542 -0.0957
13827SOL    HW144315   1.621   4.960   3.977  1.8335 -1.6888 -0.1840
13827SOL    HW244316   1.595   5.059   4.105 -0.8854 -0.1274 -1.8807
13828SOL     OW44317   1.924   6.466   3.577  0.1542  0.3018  0.1917
13828SOL    HW144318   2.008   6.502   3.617 -0.2570  2.6885 -0.9785
13828SOL    HW244319   1.937   6.371   3.551  2.4030  0.5703  0.2449
13829SOL     OW44320   8.326   9.600   1.872 -0.2489 -0.0911  0.4483
13829SOL    HW144321   8.232   9.632   1.881 -0.6708 -0.6411 -1.6429
13829SOL    HW244322   8.326   9.511   1.827  1.4323  1.3221 -2.4842
13831SOL     OW44323   9.347   2.373   3.474  0.2379  0.0240 -0.0112
13831SOL    HW144324   9.445   2.354   3.467 -0.1214 -1.3478 -2.1095
13831SOL    HW244325   9.310   2.388   3.382 -1.3029  1.7458  0.8695
13832SOL     OW44326   1.588   2.352   2.390 -0.4979  0.2917 -0.5483
13832SOL    HW144327   1.637   2.288   2.448 -0.8946  0.9641  0.5645
13832SOL    HW244328   1.641   2.372   2.308  0.7381  0.4339  0.2768
13834SOL     OW44329   3.256   2.558   3.208  0.2771 -0.6069 -0.4446
13834SOL    HW144330   3.335   2.617   3.224 -0.6292  0.3250  0.5891
13834SOL    HW244331   3.215   2.581   3.120 -0.6872  1.0166  0.4156
13835SOL     OW44332   9.511   9.256   2.599  0.2041  0.3992  0.2442
13835SOL    HW144333   9.512   9.220   2.506  1.3947  0.6609  0.1540
13835SOL    HW244334   9.568   9.338   2.604  1.7098 -0.6920  1.6322
13836SOL     OW44335   8.486   2.595   2.230  0.4909  0.1983  0.2850
13836SOL    HW144336   8.440   2.596   2.140  1.7666 -1.6553 -0.4119
13836SOL    HW244337   8.430   2.544   2.295  0.3735  0.0719  0.0865
13837SOL     OW44338   1.799   7.646   0.555  0.2535  0.3922 -0.0019
13837SOL    HW144339   1.728   7.580   0.581 -0.2992  0.8035 -0.4656
13837SOL    HW244340   1.791   7.667   0.458  2.0036 -0.7548 -0.4220
13842SOL     OW44341   3.469   0.895   2.478  0.6406 -0.8298  0.5516
13842SOL    HW144342   3.544   0.945   2.435 -0.6343  0.3370 -0.3388
13842SOL    HW244343   3.468   0.914   2.576  0.3802  0.6383  0.2784
13843SOL     OW44344   8.630   9.573   0.844  0.0030 -0.0353 -0.3306
13843SOL    HW144345   8.578   9.642   0.793  1.3869  1.4170  0.2058
13843SOL    HW244346   8.727   9.581   0.823  0.2226 -1.6204 -0.0077
13844SOL     OW44347   5.863   7.630   4.059  0.0338 -0.0890 -0.4529
13844SOL    HW144348   5.936   7.692   4.029 -1.4905  2.2185  0.4025
13844SOL    HW244349   5.821   7.588   3.978  0.4979  0.7311 -1.1384
13845SOL     OW44350   2.546   9.562   3.015  0.0466 -0.1368 -0.2366
13845SOL    HW144351   2.637   9.562   3.057  0.2962  1.5058 -0.7334
13845SOL    HW244352   2.555   9.550   2.916 -0.3912 -1.6852 -0.0930
13846SOL     OW44353   2.407   5.040   0.510 -0.0538  0.1269  0.2744
13846SOL    HW144354   2.468   5.020   0.587 -1.5137 -0.4291  1.3256
13846SOL    HW244355   2.312   5.039   0.543 -0.6518  0.5027 -1.4191
13847SOL     OW44356   8.682   2.763   3.419 -0.3512 -0.0883 -0.1277
13847SOL    HW144357   8.730   2.702   3.482  0.3755  0.1263 -0.4643
13847SOL    HW244358   8.604   2.804   3.465 -1.0172 -1.4905  0.0180
13849SOL     OW44359   2.087   2.121   0.443 -0.2040 -0.5720 -0.1975
13849SOL    HW144360   2.128   2.093   0.530  0.7761 -1.2775 -0.8730
13849SOL    HW244361   2.129   2.069   0.368 -0.7877  0.2803 -1.1287
13850SOL     OW44362   2.499   5.882   1.861 -0.2283  0.6174 -0.3045
13850SOL    HW144363   2.509   5.898   1.959 -2.0169 -0.5938  0.1025
13850SOL    HW244364   2.406   5.851   1.841 -0.0716  1.4548 -2.4750
13851SOL     OW44365   3.064   5.250   3.028 -0.6067 -0.0737 -0.7212
13851SOL    HW144366   3.076   5.151   3.030 -1.0503 -0.1156  0.7606
13851SOL    HW244367   3.126   5.290   2.960 -0.9821 -1.4292 -1.8784
13852SOL     OW44368   9.974   0.011   3.159  0.8019 -0.4218 -0.0292
13852SOL    HW144369  10.036   0.061   3.219  1.9627 -0.5097 -1.1358
13852SOL    HW244370   9.927   0.074   3.098 -0.9106 -0.2563  1.4207
13853SOL     OW44371   1.195   5.680   2.007 -0.5837 -0.2377  0.3226
13853SOL    HW144372   1.251   5.758   1.978  0.3478 -0.9099  0.2849
13853SOL    HW244373   1.133   5.654   1.933 -0.4332  0.0492  0.0957
13856SOL     OW44374   1.932   9.607   3.329 -0.0658  0.0030 -0.3455
13856SOL    HW144375   1.867   9.683   3.328 -0.7721 -0.5898  0.0370
13856SOL    HW244376   1.997   9.618   3.253 -0.4694  0.7197 -0.5951
13857SOL     OW44377   7.902   8.755   0.302 -0.0346  0.2504  0.3743
13857SOL    HW144378   7.839   8.748   0.380  1.5047 -3.2031  1.4009
13857SOL    HW244379   7.978   8.814   0.327 -0.6418  0.9206  0.6898
13858SOL     OW44380   0.368   6.071   1.216  0.1088 -0.1577  0.5296
13858SOL    HW144381   0.275   6.081   1.182  0.0598  0.1167  0.7393
13858SOL    HW244382   0.431   6.062   1.139 -0.3995 -3.2414  0.4275
13859SOL     OW44383   0.346   5.890   3.549 -0.3434  0.1036  0.0840
13859SOL    HW144384   0.432   5.857   3.512 -1.0692  0.3705 -1.9475
13859SOL    HW244385   0.354   5.904   3.647  1.2983 -1.8073  0.2330
13860SOL     OW44386   4.207   3.885   2.089 -0.3409  0.2770 -0.1710
13860SOL    HW144387   4.157   3.871   2.175  1.2359  0.2564  0.7741
13860SOL    HW244388   4.241   3.797   2.056 -0.4878  0.3567 -0.5304
13861SOL     OW44389   1.473   1.173   1.628  0.4810  0.2038 -0.5471
13861SOL    HW144390   1.410   1.249   1.647 -0.8141 -0.5629 -1.6617
13861SOL    HW244391   1.445   1.093   1.681  0.9391  0.0645 -0.5174
13862SOL     OW44392   6.211   1.766   2.512 -0.1760 -0.1882 -0.4209
13862SOL    HW144393   6.142   1.836   2.532 -0.4485 -0.7414  0.6634
13862SOL    HW244394   6.295   1.809   2.481 -0.6893  0.5580 -0.7828
13863SOL     OW44395   9.477   0.486   1.327  0.3092 -0.0012  0.4980
13863SOL    HW144396   9.467   0.569   1.273  0.8992 -0.4112 -0.2553
13863SOL    HW244397   9.573   0.460   1.332  0.1632 -0.4609  0.9992
13864SOL     OW44398   7.728   5.997   3.832  0.3596  0.5584  0.0917
13864SOL    HW144399   7.735   5.933   3.909  1.8648 -0.3773 -0.7945
13864SOL    HW244400   7.799   6.067   3.839  1.0134  0.0046 -0.8503
13866SOL     OW44401   4.858   6.208   1.255 -0.5343  0.0667 -0.0734
13866SOL    HW144402   4.943   6.156   1.264 -0.4445  0.3288  0.6323
13866SOL    HW244403   4.796   6.159   1.193 -0.3146 -0.7171  0.3093
13867SOL     OW44404   8.079   0.281   1.287  0.6543 -0.4677 -0.0262
13867SOL    HW144405   8.138   0.341   1.233  0.6074 -1.5690 -1.3227
13867SOL    HW244406   8.103   0.289   1.383  2.8990 -0.8579 -0.5246
13869SOL     OW44407   2.660   8.592   1.650  0.4662  0.1186 -0.2148
13869SOL    HW144408   2.674   8.690   1.636  2.2855  0.0721  1.0857
13869SOL    HW244409   2.657   8.573   1.748  1.8275 -1.3369 -0.4447
13870SOL     OW44410   8.793   4.792   1.920 -0.2191 -0.2753  0.3739
13870SOL    HW144411   8.873   4.784   1.981 -0.0036 -0.4192  0.0742
13870SOL    HW244412   8.820   4.768   1.827 -0.8466 -1.3347  0.4528
13873SOL     OW44413   1.206   4.304   0.363 -0.5728 -0.2724  0.1368
13873SOL    HW144414   1.215   4.300   0.462  2.0194  2.1509  0.0734
13873SOL    HW244415   1.109   4.307   0.338 -1.2396  0.7938  2.6998
13874SOL     OW44416   4.477   5.506   1.584  0.1256  0.5971 -0.0476
13874SOL    HW144417   4.435   5.594   1.606  0.2826  0.5789  0.3122
13874SOL    HW244418   4.460   5.484   1.487 -1.7397  0.0210  0.3912
13876SOL     OW44419   2.508   4.339   3.604  0.0554 -0.3732  0.2162
13876SOL    HW144420   2.477   4.432   3.586 -0.6280 -0.6322  0.0296
13876SOL    HW244421   2.484   4.280   3.527  1.9505 -0.3751 -0.3939
13877SOL     OW44422   8.665   5.923   1.930 -0.0702  0.3152  0.2776
13877SOL    HW144423   8.738   5.971   1.979 -1.6541  0.7075  2.3239
13877SOL    HW244424   8.704   5.874   1.853  2.5010 -0.1620  1.8060
13878SOL     OW44425   3.442   2.104   0.400  0.1479 -0.6005 -0.1112
13878SOL    HW144426   3.467   2.014   0.364  0.2346 -0.9417  0.7892
13878SOL    HW244427   3.487   2.175   0.347 -0.0166 -1.0855 -0.9065
13880SOL     OW44428   7.699   8.591   2.825  0.0961  0.4844  0.1258
13880SOL    HW144429   7.726   8.595   2.729  2.1185 -0.8732  0.6159
13880SOL    HW244430   7.663   8.680   2.853  3.2138  2.1197 -0.8339
13881SOL     OW44431   3.442   4.767   3.532 -0.5127  0.1113  0.2305
13881SOL    HW144432   3.502   4.774   3.611 -0.4454  2.3301  0.0317
13881SOL    HW244433   3.371   4.699   3.549  0.1677 -0.2401  1.7330
13882SOL     OW44434   4.579   9.405   4.405 -0.4308 -0.3802 -0.8345
13882SOL    HW144435   4.616   9.465   4.476  1.6302 -1.5110 -0.9160
13882SOL    HW244436   4.556   9.460   4.325 -1.3351  0.6934  0.1347
13884SOL     OW44437   1.783   8.229   4.024 -0.2756  0.3045 -0.2590
13884SOL    HW144438   1.844   8.179   4.087 -1.2075 -0.1700  0.2860
13884SOL    HW244439   1.710   8.167   3.993 -1.1882  1.2090  0.0698
13885SOL     OW44440   8.558   2.963   2.016 -0.1148  0.0475 -0.0682
13885SOL    HW144441   8.629   2.996   1.954  1.3832 -0.1924  1.4848
13885SOL    HW244442   8.496   2.902   1.967 -0.3861  1.7517 -1.8968
13886SOL     OW44443   6.832   7.654   1.962 -0.0111  0.4383 -0.4958
13886SOL    HW144444   6.783   7.723   2.017 -0.4634 -1.3417  1.3933
13886SOL    HW244445   6.906   7.615   2.017  1.8936  1.2151 -2.4404
13887SOL     OW44446   4.458   7.401   3.473  0.2012 -0.0588 -0.9092
13887SOL    HW144447   4.432   7.386   3.568  0.6687  1.7117 -0.4744
13887SOL    HW244448   4.396   7.350   3.413 -0.1476 -1.1201  0.3316
13889SOL     OW44449   5.649   0.565   2.310  0.1725 -0.8170 -0.2688
13889SOL    HW144450   5.614   0.471   2.301  2.3661 -1.5382 -1.6732
13889SOL    HW244451   5.636   0.596   2.404 -0.5277 -2.5565  0.2293
13890SOL     OW44452   9.107   0.953   3.215  0.3018  0.4482  0.1967
13890SOL    HW144453   9.010   0.934   3.203  0.2184  0.1997  1.2008
13890SOL    HW244454   9.159   0.907   3.143 -0.3844  1.2873 -0.8481
13892SOL     OW44455   3.653   8.167   1.219 -0.2025 -0.4077 -0.4726
13892SOL    HW144456   3.734   8.143   1.166  0.1206  0.2686 -0.2889
13892SOL    HW244457   3.672   8.157   1.316  0.3089  1.6930 -0.3372
13893SOL     OW44458   2.171   2.446   3.298  0.2409  0.4705  0.0272
13893SOL    HW144459   2.260   2.460   3.341  0.4301  1.5619 -0.7040
13893SOL    HW244460   2.129   2.535   3.278 -1.2684 -0.0261  0.8946
13894SOL     OW44461   3.652   4.013   3.226 -0.2347 -0.6611  0.0751
13894SOL    HW144462   3.685   4.038   3.135 -1.9244  0.7012 -0.2045
13894SOL    HW244463   3.602   3.927   3.221  2.3818 -2.2402  0.3321
13897SOL     OW44464   4.574   3.828   2.388  0.3995 -0.3343 -0.2293
13897SOL    HW144465   4.553   3.920   2.355  1.2492 -0.3621 -0.8544
13897SOL    HW244466   4.490   3.784   2.419  0.0892  0.9052  0.7288
13898SOL     OW44467   9.079   8.616   3.346 -0.0295 -0.0812 -0.1334
13898SOL    HW144468   9.137   8.672   3.405  1.5127  1.5865 -3.1143
13898SOL    HW244469   9.113   8.522   3.346  1.2488  0.3661 -0.0066
13899SOL     OW44470   1.384   1.552   4.172 -0.0222 -0.6757  0.0995
13899SOL    HW144471   1.470   1.584   4.212 -1.2854  1.5176  1.1541
13899SOL    HW244472   1.346   1.480   4.230  0.1164 -0.2590  0.7193
13900SOL     OW44473   0.724   2.940   3.892 -0.4248  0.4301  0.2519
13900SOL    HW144474   0.757   3.034   3.900 -0.0531  0.3217  0.0249
13900SOL    HW244475   0.801   2.879   3.874 -0.6597  0.0760  0.4433
13901SOL     OW44476   9.847   1.110   1.819 -0.0144 -0.1280  0.0725
13901SOL    HW144477   9.803   1.024   1.790 -0.0340  0.5353 -1.9537
13901SOL    HW244478   9.843   1.176   1.744  2.2808  0.7949  0.7221
13902SOL     OW44479   4.101   2.978   3.884 -0.0379 -0.0256  0.7705
13902SOL    HW144480   4.133   2.886   3.861 -0.6044 -0.3678  1.3575
13902SOL    HW244481   4.068   2.980   3.978  0.7915  0.9901  1.0582
13903SOL     OW44482   8.190   0.839   1.201 -0.0192  0.0218  0.4487
13903SOL    HW144483   8.189   0.884   1.112 -0.8119 -0.7037  0.0735
13903SOL    HW244484   8.143   0.751   1.193 -0.0470 -0.0660  1.5756
13906SOL     OW44485   5.131   8.794   3.765  0.3820 -0.0895  0.6526
13906SOL    HW144486   5.160   8.857   3.837 -2.0880  1.4343  0.3581
13906SOL    HW244487   5.087   8.714   3.805  1.3350 -0.4789  0.9279
13907SOL     OW44488   1.436   0.707   2.496  0.5845  0.6579 -0.2812
13907SOL    HW144489   1.341   0.737   2.486  0.1392 -0.4809  0.5023
13907SOL    HW244490   1.486   0.728   2.412 -0.4373  0.9670 -0.8238
13908SOL     OW44491   9.570   7.599   0.201  0.4360  0.3875  0.2049
13908SOL    HW144492   9.550   7.646   0.115 -1.6854 -1.0524 -0.1195
13908SOL    HW244493   9.503   7.626   0.270  0.3138 -0.7528  0.5406
13909SOL     OW44494   1.692   0.521   1.179  0.4189  0.1432  0.5347
13909SOL    HW144495   1.602   0.522   1.136 -0.7133 -1.3421  2.7629
13909SOL    HW244496   1.761   0.546   1.112 -1.4817 -0.1716 -1.6054
13910SOL     OW44497   4.020   7.356   1.358 -0.1672  0.3718 -0.3790
13910SOL    HW144498   4.105   7.306   1.378 -0.4151  0.0715 -0.0570
13910SOL    HW244499   3.956   7.342   1.434 -1.5037 -1.6038 -1.8284
13912SOL     OW44500   9.029   0.893   0.634 -0.2757  0.9149 -0.2402
13912SOL    HW144501   9.073   0.932   0.554 -1.1351 -0.2317 -1.2838
13912SOL    HW244502   9.039   0.955   0.712  1.6105  1.4892 -0.9167
13913SOL     OW44503   0.615   0.012   3.448 -0.0465  0.0408 -0.1675
13913SOL    HW144504   0.517   0.001   3.431 -0.3027 -0.0356  1.2506
13913SOL    HW244505   0.657  -0.077   3.460  0.2945  0.0509 -1.2260
13914SOL     OW44506   1.826   6.949   3.399 -0.2487  0.5482 -0.1865
13914SOL    HW144507   1.730   6.956   3.370  0.1862  0.9709 -1.5477
13914SOL    HW244508   1.857   7.038   3.433  0.0112  0.7126 -0.8527
13915SOL     OW44509   3.520   3.910   0.426  0.0219  0.2874 -0.3683
13915SOL    HW144510   3.531   3.828   0.483  0.9111 -0.1036 -1.0780
13915SOL    HW244511   3.606   3.928   0.377  0.0586  2.0485  0.3052
13916SOL     OW44512   6.899   0.163   1.535 -0.2962 -0.2254 -0.3956
13916SOL    HW144513   6.825   0.120   1.483  1.4851 -1.1552 -2.2829
13916SOL    HW244514   6.959   0.212   1.472 -0.2192  1.9479  1.3042
13917SOL     OW44515   8.383   5.129   1.669  0.5034 -0.1378 -0.1449
13917SOL    HW144516   8.371   5.072   1.750 -0.3897 -0.9956 -0.8696
13917SOL    HW244517   8.475   5.115   1.633  0.3494 -0.9954 -0.2181
13918SOL     OW44518   2.131   4.841   2.158 -0.1201  0.2621  0.4728
13918SOL    HW144519   2.198   4.776   2.194 -1.6384 -1.0191  1.0657
13918SOL    HW244520   2.075   4.796   2.088 -0.9225  1.0376  0.6081
13919SOL     OW44521   3.974   9.678   4.147 -0.2508  0.7587 -0.5364
13919SOL    HW144522   3.965   9.707   4.242 -0.1775  0.1705 -0.3520
13919SOL    HW244523   3.899   9.616   4.124  0.9469 -0.8031 -0.2363
13920SOL     OW44524   8.095   2.820   1.471 -0.2378  0.3587 -0.0287
13920SOL    HW144525   8.151   2.738   1.472 -0.5615  0.1399  0.9218
13920SOL    HW244526   8.138   2.890   1.414  1.0751  0.2481  0.8154
13921SOL     OW44527   3.168   1.391   1.978  0.2190  0.0876  0.0716
13921SOL    HW144528   3.232   1.436   2.040  0.1113  0.4375 -0.0696
13921SOL    HW244529   3.102   1.458   1.944 -0.7275 -0.4425  0.8502
13923SOL     OW44530   1.773   6.613   4.419  0.1114  0.4401  0.0542
13923SOL    HW144531   1.817   6.690   4.464 -0.1499  2.1569 -2.5051
13923SOL    HW244532   1.816   6.597   4.330 -1.4088 -0.8457 -0.4789
13926SOL     OW44533   3.939   7.930   2.985  0.0070 -0.1645 -0.2677
13926SOL    HW144534   3.985   8.018   2.995  0.3592 -0.4496  0.7187
13926SOL    HW244535   3.986   7.862   3.041 -2.6404 -0.0689  2.1481
13927SOL     OW44536   0.051   8.182   2.892  0.7655  0.0247  0.0136
13927SOL    HW144537   0.123   8.219   2.834 -0.4752  0.2329 -1.4410
13927SOL    HW244538   0.085   8.100   2.939  1.7649 -0.2332 -1.1222
13928SOL     OW44539   2.198   5.215   0.788  0.4583 -0.2626 -0.7165
13928SOL    HW144540   2.114   5.223   0.842 -0.0743  0.3224 -1.6219
13928SOL    HW244541   2.184   5.148   0.716  1.0423 -0.7604 -0.3648
13929SOL     OW44542   7.300   0.886   1.034 -0.2816 -0.1680 -0.1586
13929SOL    HW144543   7.326   0.928   0.947 -0.4518  0.3281  0.0337
13929SOL    HW244544   7.279   0.957   1.101  0.3957 -0.5441  0.4596
13930SOL     OW44545   3.580   2.165   1.622  0.1065  0.6076  0.3638
13930SOL    HW144546   3.555   2.262   1.615 -0.3558  0.3334 -2.4833
13930SOL    HW244547   3.679   2.156   1.621  0.1290  0.9474 -1.4273
13931SOL     OW44548   9.615   9.484   3.870  0.3766 -0.2413 -0.8390
13931SOL    HW144549   9.686   9.552   3.857 -1.0780  0.9878 -2.6072
13931SOL    HW244550   9.534   9.528   3.909  0.3683 -1.5009  0.5976
13932SOL     OW44551   1.451   2.236   1.078 -0.0440 -0.2531 -0.3456
13932SOL    HW144552   1.508   2.319   1.085 -0.6026  0.0863  0.3208
13932SOL    HW244553   1.484   2.168   1.144 -1.1066  0.3781  0.8612
13933SOL     OW44554   7.653   8.943   1.955  0.8286 -0.2337 -0.1862
13933SOL    HW144555   7.744   8.948   1.997  2.4533 -2.6226 -3.1886
13933SOL    HW244556   7.595   8.880   2.006  1.5132 -0.2417  0.5877
13934SOL     OW44557   7.106   0.337   1.997 -0.1312 -0.1375  0.6646
13934SOL    HW144558   7.094   0.396   1.917  1.0742  0.8130  1.1611
13934SOL    HW244559   7.161   0.385   2.065  2.0558 -2.3348  0.5343
13935SOL     OW44560   1.472   0.906   3.189  0.2557  0.3383  0.3336
13935SOL    HW144561   1.396   0.849   3.221  0.6351  0.0381  0.7028
13935SOL    HW244562   1.500   0.968   3.262  0.0335  0.8019  0.0269
13936SOL     OW44563   2.049   5.953   2.004  0.2938 -0.5218  0.0863
13936SOL    HW144564   2.005   6.020   2.064  0.2404  0.4086 -0.9787
13936SOL    HW244565   2.140   5.931   2.040  1.0445  1.4942 -0.5158
13937SOL     OW44566   7.804   8.311   1.516  0.3109  0.2202  0.0073
13937SOL    HW144567   7.748   8.394   1.521 -1.1117 -0.5985 -1.5796
13937SOL    HW244568   7.849   8.307   1.427  0.6609 -0.5387  0.2159
13938SOL     OW44569   0.381   0.869   0.145 -0.6297  0.2262 -0.5020
13938SOL    HW144570   0.357   0.774   0.126  0.7234  0.2186 -2.2901
13938SOL    HW244571   0.312   0.929   0.104  0.6602  0.1136 -2.8954
13939SOL     OW44572   4.531   4.985   0.606  0.3819 -0.0223 -0.4503
13939SOL    HW144573   4.443   5.029   0.592 -0.3954 -0.8467  1.6580
13939SOL    HW244574   4.591   5.045   0.659  0.7114  0.0942 -0.9502
13940SOL     OW44575   1.339   3.048   0.720  0.5340  0.4283  0.5459
13940SOL    HW144576   1.412   3.088   0.663  0.7852 -1.1498 -0.2784
13940SOL    HW244577   1.279   3.121   0.752  0.8068  1.4511 -1.1478
13941SOL     OW44578   9.256   6.241   2.338 -0.1110  0.3621 -0.4869
13941SOL    HW144579   9.163   6.275   2.329 -0.3869 -0.7279 -1.7812
13941SOL    HW244580   9.254   6.147   2.372  0.4285 -0.3884 -2.4892
13946SOL     OW44581   4.298   9.525   3.546  0.0116  0.4542 -0.2334
13946SOL    HW144582   4.210   9.571   3.550  0.0430  0.4813  0.1184
13946SOL    HW244583   4.289   9.433   3.585  0.7953  1.4712  2.4194
13948SOL     OW44584   3.925   6.844   3.496 -0.1806  0.0747  0.7792
13948SOL    HW144585   3.860   6.832   3.421  1.7852  0.9844 -1.1282
13948SOL    HW244586   3.932   6.759   3.548 -0.6391 -0.9852 -0.8493
13949SOL     OW44587   0.624   8.877   3.189 -0.0656  0.0660  0.0858
13949SOL    HW144588   0.691   8.824   3.240  0.1019 -1.1612 -1.3769
13949SOL    HW244589   0.670   8.938   3.125 -0.2902  1.1663  0.9566
13950SOL     OW44590   1.573   0.657   0.447 -0.0498 -0.2152  0.1801
13950SOL    HW144591   1.595   0.635   0.542  1.2272  0.3434  0.0233
13950SOL    HW244592   1.536   0.575   0.401  1.4431 -1.1166  0.5423
13952SOL     OW44593   5.818   7.189   3.328 -0.0549 -0.2831 -0.2560
13952SOL    HW144594   5.820   7.284   3.358 -0.5013 -0.4251  0.2417
13952SOL    HW244595   5.858   7.131   3.399 -1.6803 -0.6911  0.3544
13953SOL     OW44596   9.316   1.779   0.630 -0.3525  0.1424 -0.2463
13953SOL    HW144597   9.329   1.715   0.555 -1.8107 -1.9318  1.2291
13953SOL    HW244598   9.386   1.850   0.626  1.1767 -1.4285 -2.0072
13954SOL     OW44599   8.870   2.988   4.245  0.0842 -0.1713  0.2153
13954SOL    HW144600   8.779   3.001   4.205 -0.1668  0.1800  0.8991
13954SOL    HW244601   8.871   2.903   4.297 -0.7435  1.2674  2.6712
13955SOL     OW44602   3.151   0.783   2.129 -0.7045  0.0095  0.0137
13955SOL    HW144603   3.140   0.851   2.201 -1.5339  0.3880 -0.4601
13955SOL    HW244604   3.243   0.790   2.091 -0.6230  0.5378  0.3001
13957SOL     OW44605   8.984   7.966   0.758 -0.4304  0.1672 -0.0674
13957SOL    HW144606   9.005   7.897   0.828 -1.1423 -0.3030 -0.3126
13957SOL    HW244607   8.997   8.057   0.797  1.8839 -0.1056 -0.1658
13958SOL     OW44608   8.537   0.306   3.070  0.6320  0.1805 -0.2061
13958SOL    HW144609   8.531   0.222   3.124  2.1061  0.8069  0.9689
13958SOL    HW244610   8.515   0.287   2.975  0.1881 -1.3766  0.2013
13960SOL     OW44611   2.764   0.162   1.753  0.2821  0.0541 -0.1748
13960SOL    HW144612   2.792   0.099   1.826 -0.0660  0.8287  0.6240
13960SOL    HW244613   2.764   0.113   1.666 -0.9609 -1.3400  0.5842
13961SOL     OW44614   8.997   2.000   0.047  0.0661 -0.5792 -0.3193
13961SOL    HW144615   8.957   2.062  -0.020  3.4668  1.1504 -0.8549
13961SOL    HW244616   9.016   2.050   0.131  3.3385 -0.6763 -0.9385
13962SOL     OW44617   8.940   6.240   2.957 -0.2684  0.2232  0.2416
13962SOL    HW144618   8.892   6.317   2.916  0.6905  0.8996  0.3779
13962SOL    HW244619   8.881   6.196   3.025 -0.8843  0.7229  0.0311
13963SOL     OW44620   3.687   3.693   0.500 -0.3053  0.1962  0.2826
13963SOL    HW144621   3.694   3.611   0.557 -2.3139  0.0424  0.3677
13963SOL    HW244622   3.668   3.666   0.406 -1.4705  0.5653  0.4050
13964SOL     OW44623   7.737   3.728   1.084  0.2487 -0.9927 -0.1094
13964SOL    HW144624   7.764   3.638   1.052  0.4525 -1.0489  0.2213
13964SOL    HW244625   7.666   3.718   1.154  0.9423 -0.9341  0.6032
13965SOL     OW44626   5.286   7.571   2.102  0.0874  0.1409 -0.0774
13965SOL    HW144627   5.273   7.472   2.106 -0.4915  0.1624 -1.1858
13965SOL    HW244628   5.316   7.597   2.010 -0.2682  1.0549  0.0588
13966SOL     OW44629   0.755   4.609   2.891 -0.2908 -0.3074  0.9259
13966SOL    HW144630   0.690   4.684   2.877 -0.0868  0.0362  1.8052
13966SOL    HW244631   0.727   4.530   2.836  0.2880  0.8793 -1.1252
13967SOL     OW44632   0.776   7.850   0.364 -0.6126  0.0542  0.1358
13967SOL    HW144633   0.805   7.847   0.459  0.1846  1.6845 -0.0342
13967SOL    HW244634   0.695   7.909   0.356 -1.4341 -1.0799 -0.0212
13968SOL     OW44635   8.029   9.994   1.936 -0.6584  0.1180  0.0420
13968SOL    HW144636   7.995  10.042   1.856  0.2659  0.3771 -0.1959
13968SOL    HW244637   7.979  10.024   2.017 -0.8592  0.6453 -0.2776
13970SOL     OW44638   4.001   1.069   1.890 -0.3374  0.4983  0.4798
13970SOL    HW144639   3.949   1.024   1.818 -0.2715 -0.6368  1.1318
13970SOL    HW244640   3.969   1.163   1.900  0.6165  1.1252 -1.9796
13971SOL     OW44641   7.619   1.428   4.245 -0.0165  0.8096 -0.0540
13971SOL    HW144642   7.603   1.339   4.287  1.0353  0.3441 -0.6134
13971SOL    HW244643   7.532   1.470   4.221 -0.5123 -0.1609  0.0392
13972SOL     OW44644   9.721   6.201   3.709  0.2601 -0.4837 -0.1001
13972SOL    HW144645   9.635   6.151   3.714 -0.5013  0.8690  0.9341
13972SOL    HW244646   9.755   6.218   3.802  1.1634 -0.2120 -0.4753
13973SOL     OW44647   1.008   9.304   2.743 -0.4010 -0.1383 -0.2800
13973SOL    HW144648   1.033   9.250   2.824  0.2776 -1.6583 -1.4767
13973SOL    HW244649   0.917   9.277   2.712 -0.4958  0.1573 -0.2543
13974SOL     OW44650   4.697   7.655   4.427  0.7428  0.5792 -0.3647
13974SOL    HW144651   4.759   7.725   4.462 -1.1522  2.3353 -0.4372
13974SOL    HW244652   4.666   7.680   4.335  0.1930 -0.4376 -0.4665
13975SOL     OW44653   4.113   4.402   3.937 -0.1015 -0.0014 -0.2519
13975SOL    HW144654   4.068   4.489   3.916  0.1541  0.4264  0.9533
13975SOL    HW244655   4.193   4.391   3.878 -1.0212 -0.1492 -1.4910
13976SOL     OW44656   0.975   0.001   1.389  0.0274 -0.0819 -0.1194
13976SOL    HW144657   0.948  -0.028   1.297  1.2525 -1.3826 -0.0778
13976SOL    HW244658   1.058   0.057   1.384  1.5801 -2.2633  0.3800
13977SOL     OW44659   1.410   2.195   0.807  0.0826 -0.6129  1.0579
13977SOL    HW144660   1.346   2.259   0.766 -1.2005 -1.8044  1.1385
13977SOL    HW244661   1.411   2.207   0.906  0.0771 -0.5083  1.0445
13978SOL     OW44662   8.703   0.243   4.045 -0.0918  0.0571 -0.1597
13978SOL    HW144663   8.755   0.273   4.125 -1.1149  0.2700  0.4393
13978SOL    HW244664   8.661   0.154   4.065 -0.0591 -0.0540 -0.5877
13979SOL     OW44665   7.719   9.086   4.437  0.1801 -0.2572  0.1498
13979SOL    HW144666   7.652   9.156   4.463  0.4455  0.3090 -0.7016
13979SOL    HW244667   7.806   9.103   4.483  0.1017 -0.3060  0.3177
13981SOL     OW44668   0.264   7.896   3.348 -0.5059 -0.3806 -0.0946
13981SOL    HW144669   0.314   7.977   3.376 -0.5841 -0.6405  0.8264
13981SOL    HW244670   0.278   7.823   3.415 -1.4615 -0.7148 -0.2445
13982SOL     OW44671   0.822   1.744   0.546 -0.0080 -0.0597 -0.2132
13982SOL    HW144672   0.746   1.805   0.568 -0.1084 -0.2712  0.0328
13982SOL    HW244673   0.908   1.785   0.577 -0.3197 -1.0976  2.0853
13984SOL     OW44674   8.984   6.668   0.170 -0.5417 -0.3412 -0.2355
13984SOL    HW144675   8.941   6.673   0.260  2.0449 -1.8879  1.1183
13984SOL    HW244676   9.032   6.754   0.152 -1.8133  0.3256 -0.5907
13986SOL     OW44677   2.882   2.834   0.936 -0.1811 -0.2322 -0.2754
13986SOL    HW144678   2.784   2.843   0.956 -0.4616  1.8652 -2.4589
13986SOL    HW244679   2.933   2.904   0.986  0.1277 -0.8805  0.3172
13987SOL     OW44680   7.815   9.287   3.522  0.5836 -0.2135 -0.0632
13987SOL    HW144681   7.811   9.372   3.574 -1.2675 -0.3463  0.0452
13987SOL    HW244682   7.908   9.250   3.525  1.1201  1.1760  0.8847
13988SOL     OW44683   8.059   5.615   3.198 -0.0871 -0.0312 -0.3847
13988SOL    HW144684   7.986   5.588   3.260  1.5866 -1.4833  0.9960
13988SOL    HW244685   8.099   5.702   3.229  0.5229 -0.5843  0.3890
13989SOL     OW44686   8.038   1.593   0.863 -0.9510  0.4575  0.1236
13989SOL    HW144687   8.007   1.676   0.911 -0.7481  1.0189 -0.7033
13989SOL    HW244688   8.108   1.618   0.797 -0.6564 -0.4321  0.0990
13990SOL     OW44689   8.320   6.824   0.624 -0.1794 -0.6017 -0.3161
13990SOL    HW144690   8.398   6.887   0.623 -0.1357 -0.6567 -0.3180
13990SOL    HW244691   8.270   6.832   0.538  0.2127 -1.0515 -0.5895
13991SOL     OW44692   0.357   3.582   2.478 -0.3076  0.2211  0.0582
13991SOL    HW144693   0.455   3.576   2.457 -0.2379  0.3393  0.3459
13991SOL    HW244694   0.322   3.490   2.498 -0.2684  0.1708 -0.1017
13992SOL     OW44695   9.657   6.900   1.781  0.1759 -0.0851 -0.4601
13992SOL    HW144696   9.689   6.903   1.686 -2.7550  0.2405 -1.5012
13992SOL    HW244697   9.670   6.990   1.823  1.1573 -0.1307 -0.6606
13993SOL     OW44698   8.009   6.358   2.059 -0.8794  0.0490  0.2735
13993SOL    HW144699   7.922   6.396   2.090 -1.4026 -0.9107  0.0201
13993SOL    HW244700   8.010   6.259   2.077 -0.8812 -0.4012 -1.9747
13994SOL     OW44701   2.588   9.537   2.231  0.3854 -0.2857  0.4030
13994SOL    HW144702   2.528   9.536   2.310  1.2299 -0.0038  1.0535
13994SOL    HW244703   2.534   9.524   2.148 -0.4459 -1.0333  1.0553
13995SOL     OW44704   1.596   7.400   2.334  0.1758 -0.5835  0.3442
13995SOL    HW144705   1.612   7.394   2.235 -0.0400 -1.2816  0.3546
13995SOL    HW244706   1.681   7.380   2.383  0.1020 -0.9387  0.3217
13997SOL     OW44707   0.266   1.369   1.867 -0.1744  0.3909 -0.4343
13997SOL    HW144708   0.262   1.468   1.870 -0.9986  0.3672 -0.4720
13997SOL    HW244709   0.234   1.332   1.954  0.0264  0.1562 -0.4593
13998SOL     OW44710   8.768   3.227   2.077 -0.0145 -0.6393 -0.0977
13998SOL    HW144711   8.793   3.165   2.152  0.7390 -2.0514 -1.4914
13998SOL    HW244712   8.690   3.283   2.105  0.5651 -0.7956  1.9192
13999SOL     OW44713   1.930   2.080   1.223 -0.6202  0.2389 -0.4044
13999SOL    HW144714   1.970   2.007   1.169 -1.3671 -0.6742  0.2620
13999SOL    HW244715   2.002   2.130   1.272  0.0687  1.1418 -2.3070
14000SOL     OW44716   5.621   8.403   3.579  0.5508 -0.6203 -0.0661
14000SOL    HW144717   5.540   8.426   3.633  0.4907 -0.2731 -0.2985
14000SOL    HW244718   5.624   8.462   3.498  0.7585 -0.9838 -0.3238
14001SOL     OW44719   0.088   3.708   1.925  0.4396  0.4935  0.9128
14001SOL    HW144720   0.055   3.785   1.870  1.0956  0.6293  0.6961
14001SOL    HW244721   0.113   3.632   1.864 -0.6895 -0.0833  1.1613
14002SOL     OW44722   4.626   1.030   3.136 -0.6747 -0.0676  0.3238
14002SOL    HW144723   4.719   1.057   3.110  0.0623 -2.1167  0.7312
14002SOL    HW244724   4.579   0.993   3.056 -1.3167  1.3742  0.0143
14003SOL     OW44725   3.895   0.712   1.858  0.1685 -0.7770  0.6137
14003SOL    HW144726   3.979   0.718   1.804 -0.6702 -0.7309 -0.7173
14003SOL    HW244727   3.834   0.787   1.833 -1.0169 -1.8405  0.2241
14004SOL     OW44728   0.495   9.781   1.416  0.2742  0.2572  0.3834
14004SOL    HW144729   0.426   9.851   1.403 -0.0960  0.0621  1.2666
14004SOL    HW244730   0.542   9.795   1.503  2.0037  0.9488 -0.6332
14005SOL     OW44731   0.561   1.732   3.049  0.5327 -0.0484 -0.4425
14005SOL    HW144732   0.503   1.759   2.973 -2.4326 -2.5805  0.8267
14005SOL    HW244733   0.523   1.768   3.135  0.3954 -2.3055  0.4789
14006SOL     OW44734   4.533   2.503   3.378  0.3463 -0.3121  0.9627
14006SOL    HW144735   4.561   2.538   3.288 -0.7458  2.6826  1.7050
14006SOL    HW244736   4.433   2.496   3.380  0.4563 -1.8830  1.4478
14007SOL     OW44737   1.507   2.559   3.955  0.4257 -0.3722  0.5727
14007SOL    HW144738   1.544   2.538   4.045 -1.4458 -3.5760  0.7085
14007SOL    HW244739   1.581   2.562   3.888  1.6105 -0.0603  1.8839
14008SOL     OW44740   6.129   8.120   2.061  0.6296  0.2584  0.0577
14008SOL    HW144741   6.113   8.021   2.062  2.9728 -0.1488  0.1385
14008SOL    HW244742   6.148   8.151   2.154 -0.2854  0.8194  0.0568
14009SOL     OW44743   9.947   5.395   0.026  0.6164  0.0145  0.1699
14009SOL    HW144744  10.010   5.318   0.023  0.3466 -0.1604 -1.4532
14009SOL    HW244745   9.995   5.476   0.060  1.2833 -0.5270  0.5120
14010SOL     OW44746   0.906   4.846   3.739 -0.6740  0.1829  0.2018
14010SOL    HW144747   0.845   4.825   3.663 -0.4264  1.7753 -0.4618
14010SOL    HW244748   0.857   4.836   3.826 -1.3506 -0.3044 -0.2358
14011SOL     OW44749   9.058   0.735   0.887  0.5084  0.0088  0.7304
14011SOL    HW144750   8.989   0.727   0.815  0.4927 -1.3357  0.8787
14011SOL    HW244751   9.149   0.732   0.846  0.4974  1.3628  0.5758
14013SOL     OW44752   8.231   6.507   0.958 -0.0441 -0.0760 -0.1549
14013SOL    HW144753   8.132   6.494   0.957 -0.0019 -0.3759 -0.4878
14013SOL    HW244754   8.276   6.422   0.982  0.1709 -0.1951 -0.9532
14014SOL     OW44755   9.960   5.666   2.766 -0.3054  0.0210 -0.0701
14014SOL    HW144756   9.860   5.672   2.767 -0.2887  0.6607 -1.6947
14014SOL    HW244757   9.987   5.578   2.728 -0.2433 -0.6925  1.5658
14015SOL     OW44758   0.304   7.425   1.463 -0.4055 -0.4918  0.2249
14015SOL    HW144759   0.299   7.516   1.421 -3.2318 -0.7218 -0.0596
14015SOL    HW244760   0.304   7.433   1.562  1.8383 -0.1070  0.2073
14016SOL     OW44761   0.846   2.436   0.192  0.2757  0.0814 -0.1251
14016SOL    HW144762   0.786   2.497   0.244  0.2354 -0.1733  0.1326
14016SOL    HW244763   0.895   2.488   0.122 -0.0456  0.3373 -0.1596
14017SOL     OW44764   9.875   9.222   1.373 -0.2348  0.2822 -0.4659
14017SOL    HW144765   9.948   9.291   1.371  1.6071 -1.4434  2.8498
14017SOL    HW244766   9.914   9.132   1.354 -1.6468 -0.5211  0.3670
14018SOL     OW44767   3.229   7.122   2.076 -0.0600 -0.0093  0.3769
14018SOL    HW144768   3.141   7.144   2.119  0.3749  0.4590  1.0261
14018SOL    HW244769   3.221   7.034   2.028 -0.3773 -0.8499  1.9161
14019SOL     OW44770   0.982   2.265   3.221  0.1870  0.0601 -0.0111
14019SOL    HW144771   1.030   2.311   3.296  0.6083 -0.5882  0.1200
14019SOL    HW244772   0.945   2.178   3.253 -1.7896  0.9191  0.1017
14020SOL     OW44773   1.008   7.486   0.498  0.3874 -0.1919  0.6800
14020SOL    HW144774   1.033   7.420   0.570 -0.3289 -0.6975  0.4676
14020SOL    HW244775   0.913   7.515   0.510  0.1173 -0.6294 -0.3291
14021SOL     OW44776   1.268   6.569   0.805  0.3588 -0.0430  0.2835
14021SOL    HW144777   1.306   6.635   0.870 -1.1221 -0.6696  1.8172
14021SOL    HW244778   1.343   6.528   0.752  1.5529  0.7853  1.2951
14023SOL     OW44779   2.075   3.602   1.108 -0.2465 -0.3681 -0.2464
14023SOL    HW144780   2.127   3.668   1.053 -1.3382 -0.4928 -1.4444
14023SOL    HW244781   2.124   3.515   1.111 -0.7588 -0.7327 -2.0494
14024SOL     OW44782   5.980   7.272   2.422  0.3424 -0.3129  0.2738
14024SOL    HW144783   6.025   7.183   2.425 -1.4267 -1.2521 -0.5894
14024SOL    HW244784   5.915   7.280   2.498  1.4588  0.7843  1.1375
14026SOL     OW44785   6.709   0.429   2.812 -0.6587 -0.9318 -0.1936
14026SOL    HW144786   6.710   0.517   2.765  0.1021 -0.7633  0.1234
14026SOL    HW244787   6.705   0.445   2.911 -0.0755 -1.2423 -0.1171
14027SOL     OW44788   1.109   3.623   1.467  0.0120 -0.1814 -0.4435
14027SOL    HW144789   1.030   3.684   1.473  0.3816  0.3154 -0.5932
14027SOL    HW244790   1.165   3.647   1.387 -0.2881 -1.2567 -0.9899
14028SOL     OW44791   3.761   2.635   0.254  0.2575  0.0345 -0.1287
14028SOL    HW144792   3.778   2.616   0.158  1.0235  0.0727 -0.0017
14028SOL    HW244793   3.848   2.645   0.303 -0.1169 -1.2565  0.8194
14029SOL     OW44794   3.279   1.987   3.704  0.1931  0.2936  0.2670
14029SOL    HW144795   3.217   1.920   3.663 -0.4757 -0.7403  2.8582
14029SOL    HW244796   3.311   1.953   3.792  0.7113  2.9163  1.1366
14030SOL     OW44797   9.834   2.508   0.478  0.2819  0.6405  0.3307
14030SOL    HW144798   9.860   2.467   0.565  1.0262  0.4661  0.0288
14030SOL    HW244799   9.744   2.472   0.450  0.6027 -0.2410  0.4182
14031SOL     OW44800   9.088   0.688   0.422  0.1478 -0.0754 -0.1976
14031SOL    HW144801   9.185   0.707   0.437  0.4652 -2.3459  0.8886
14031SOL    HW244802   9.038   0.700   0.508 -0.2830 -0.3252 -0.4132
14032SOL     OW44803   5.802   9.713   1.959 -0.3820 -0.7237 -0.2905
14032SOL    HW144804   5.795   9.751   2.051 -0.4243  0.9988 -0.9945
14032SOL    HW244805   5.853   9.626   1.963  0.1092 -0.3808  1.2688
14033SOL     OW44806   2.090   5.081   1.075 -0.0136 -0.3479  0.7008
14033SOL    HW144807   2.162   5.065   1.142 -0.0949 -1.4511  0.5230
14033SOL    HW244808   2.004   5.044   1.108 -0.2238 -0.2025  0.3228
14034SOL     OW44809   8.433   1.984   2.695 -0.4542  0.1762 -0.1074
14034SOL    HW144810   8.429   2.007   2.597  1.6848 -0.7364 -0.4390
14034SOL    HW244811   8.430   2.068   2.749 -0.7740  0.7363 -0.9812
14035SOL     OW44812   0.191   4.429   1.376  0.1542  0.4285  0.2070
14035SOL    HW144813   0.205   4.389   1.467 -0.7933 -1.6834 -0.5396
14035SOL    HW244814   0.094   4.439   1.359  0.3691  2.9395  0.2818
14036SOL     OW44815   9.774   2.322   0.765  0.1189 -0.3687 -0.2227
14036SOL    HW144816   9.695   2.316   0.704  0.7085  0.2881 -1.0664
14036SOL    HW244817   9.856   2.288   0.718  0.4131 -0.6983  0.5154
14037SOL     OW44818   8.930   7.974   2.342 -0.2633 -0.3779 -0.0107
14037SOL    HW144819   9.029   7.961   2.351 -0.3985 -0.5903  1.3007
14037SOL    HW244820   8.883   7.892   2.375 -0.9085  0.1616  0.4178
14039SOL     OW44821   4.279   1.755   0.908 -0.5412 -0.7620 -0.6978
14039SOL    HW144822   4.227   1.695   0.847  0.1909 -2.7516  0.5846
14039SOL    HW244823   4.302   1.705   0.992  1.2830  0.8923 -0.1861
14040SOL     OW44824   8.580   4.305   4.085 -0.4444  0.2835  0.2399
14040SOL    HW144825   8.665   4.338   4.127 -0.5608  0.8386  0.0444
14040SOL    HW244826   8.600   4.225   4.029 -0.2268 -0.2444  1.0622
14041SOL     OW44827   6.830   7.823   2.211 -0.2854  0.5027 -0.0471
14041SOL    HW144828   6.758   7.890   2.229 -1.2005 -1.2334  3.1296
14041SOL    HW244829   6.919   7.863   2.233 -0.8122  0.7612  1.6993
14042SOL     OW44830   0.367   8.675   3.560  0.0333 -0.1565 -0.3013
14042SOL    HW144831   0.381   8.607   3.632  0.2352 -1.5993 -1.6819
14042SOL    HW244832   0.310   8.749   3.595  0.2207 -0.7772  1.3713
14043SOL     OW44833   7.901   9.784   2.498 -0.4276  0.0873 -0.2173
14043SOL    HW144834   7.977   9.807   2.559  0.2645 -0.6996 -0.7639
14043SOL    HW244835   7.930   9.796   2.403 -0.9709 -0.2685 -0.4293
14044SOL     OW44836   6.178   8.021   1.596  0.4565 -0.1173  0.0958
14044SOL    HW144837   6.093   8.024   1.544  0.2203  0.3527  0.5056
14044SOL    HW244838   6.255   8.040   1.535  0.1702  0.5563 -0.0649
14045SOL     OW44839   9.757   7.039   2.387  0.0948 -0.2355 -0.3054
14045SOL    HW144840   9.715   7.014   2.299 -1.3204 -1.9923  0.8203
14045SOL    HW244841   9.810   6.961   2.422 -0.0207  0.1653  0.7817
14046SOL     OW44842   6.087   7.742   3.971  0.0355 -0.8718 -0.3707
14046SOL    HW144843   6.132   7.829   3.951 -0.4956 -0.8028 -1.3073
14046SOL    HW244844   6.154   7.677   4.008  0.7196 -0.4978 -0.9346
14047SOL     OW44845   0.044   6.744   3.237  0.1253  0.0399 -0.1586
14047SOL    HW144846   0.112   6.795   3.184 -0.5921 -1.5492 -2.6871
14047SOL    HW244847  -0.030   6.715   3.177 -0.7725 -1.7602  1.7514
14048SOL     OW44848   3.439   7.111   3.009  0.4376 -0.3321  0.4052
14048SOL    HW144849   3.411   7.179   2.941  1.6311 -0.7811 -0.5412
14048SOL    HW244850   3.539   7.111   3.016  0.4764 -2.4192 -0.0407
14049SOL     OW44851   1.270   3.965   4.229 -0.1621  0.4959  0.2084
14049SOL    HW144852   1.305   3.903   4.300 -1.0963 -1.0331 -0.6482
14049SOL    HW244853   1.335   3.968   4.153 -0.5245 -0.1268 -0.1316
14050SOL     OW44854   5.855   8.907   3.714 -0.3533  0.1356  0.3743
14050SOL    HW144855   5.892   8.975   3.778  0.5962 -0.3305  0.3160
14050SOL    HW244856   5.809   8.835   3.766 -1.5695  0.9338  0.4274
14051SOL     OW44857   0.361   0.196   2.325 -0.5665 -0.3946 -0.2881
14051SOL    HW144858   0.317   0.279   2.292 -0.5721  0.8055  2.6291
14051SOL    HW244859   0.347   0.187   2.424 -0.2897 -3.6906 -0.4824
14052SOL     OW44860   7.087   8.327   3.297 -0.1253  0.5085  0.1507
14052SOL    HW144861   7.124   8.406   3.346 -1.3937  1.9215 -1.1307
14052SOL    HW244862   6.987   8.333   3.296 -0.1337  1.5076 -4.1208
14054SOL     OW44863   9.593   1.627   1.034  0.5041 -0.1976  0.7106
14054SOL    HW144864   9.531   1.628   0.956  1.5605  0.2903 -0.1248
14054SOL    HW244865   9.589   1.716   1.080  2.1034  0.5491 -0.5581
14055SOL     OW44866   0.089   4.224   3.444 -0.1355 -0.0242  0.2711
14055SOL    HW144867  -0.011   4.226   3.453 -0.1697 -1.3035  0.2470
14055SOL    HW244868   0.113   4.226   3.347 -0.1678 -0.7378  0.2477
14056SOL     OW44869   9.925   8.530   0.352 -0.1430  0.1984  0.5607
14056SOL    HW144870   9.955   8.522   0.447 -1.9091  0.3048  1.1417
14056SOL    HW244871   9.920   8.439   0.310 -0.6448  0.0385  0.9725
14057SOL     OW44872   8.963   0.442   3.837 -0.7232 -0.1937  0.1283
14057SOL    HW144873   9.044   0.490   3.803 -1.9258 -0.1487 -2.7591
14057SOL    HW244874   8.987   0.349   3.862  0.5167  0.2854  0.7710
14058SOL     OW44875   4.830   6.736   1.939 -0.1127  0.2808 -0.2389
14058SOL    HW144876   4.853   6.833   1.947  0.7268  0.0064  0.8838
14058SOL    HW244877   4.741   6.720   1.982 -0.1855  0.5220 -0.2968
14059SOL     OW44878   9.892   7.793   1.844  0.4416  0.4617 -0.6808
14059SOL    HW144879   9.844   7.706   1.859  2.4299 -0.5388 -0.0031
14059SOL    HW244880   9.988   7.776   1.824  1.7068  2.6177  3.0353
14060SOL     OW44881   9.101   3.024   1.816  0.6093  0.8667  0.6835
14060SOL    HW144882   9.068   3.114   1.789  0.5346  0.3481 -1.0196
14060SOL    HW244883   9.058   2.997   1.902 -1.4541  1.2860 -0.1842
14063SOL     OW44884   5.456   1.003   3.317  0.3368 -0.4712  0.3262
14063SOL    HW144885   5.390   0.999   3.242  2.2555  0.0604 -1.4675
14063SOL    HW244886   5.478   0.910   3.347  0.6994 -0.7767 -0.8515
14064SOL     OW44887   4.857   0.754   2.903 -0.0129  0.4289 -0.2481
14064SOL    HW144888   4.846   0.702   2.819 -1.8638  1.9083 -0.9652
14064SOL    HW244889   4.930   0.821   2.891 -0.6064  0.9717 -0.8525
14065SOL     OW44890   1.700   4.510   3.732 -0.0686 -0.2089 -1.0272
14065SOL    HW144891   1.643   4.583   3.770  1.6985 -0.2447  1.7619
14065SOL    HW244892   1.644   4.427   3.721 -0.9389  0.1960  0.2139
14066SOL     OW44893   7.019   0.048   2.679 -0.2553  0.5808  0.0028
14066SOL    HW144894   7.044  -0.031   2.735  1.9121  0.3417 -1.2526
14066SOL    HW244895   6.933   0.087   2.713  0.5266 -0.0929  2.9202
14067SOL     OW44896   0.699   2.659   4.261 -0.7983 -0.1799  0.1192
14067SOL    HW144897   0.726   2.600   4.186 -0.9378  1.0111 -0.8835
14067SOL    HW244898   0.775   2.720   4.285 -1.3356  0.6269 -0.2218
14068SOL     OW44899   3.184   2.593   2.356  0.4890 -0.2442  0.0746
14068SOL    HW144900   3.160   2.552   2.444 -0.4047  1.4144  0.6096
14068SOL    HW244901   3.282   2.582   2.341  0.2960 -2.5540  0.2057
14069SOL     OW44902   0.065   8.308   1.541 -0.5534 -0.3111 -0.1663
14069SOL    HW144903   0.157   8.313   1.580 -0.6712  0.6506  0.0089
14069SOL    HW244904   0.000   8.280   1.613 -0.6017  0.3506  0.0471
14070SOL     OW44905   8.594   5.485   2.103  0.2359  0.5170  0.2277
14070SOL    HW144906   8.682   5.462   2.062 -0.8534  1.4680 -2.7428
14070SOL    HW244907   8.589   5.584   2.119  0.5285  0.2079  2.5027
14071SOL     OW44908   6.404   7.125   2.984 -0.1062  0.0740  0.1801
14071SOL    HW144909   6.411   7.026   2.979  0.2428 -0.0086  1.8103
14071SOL    HW244910   6.396   7.163   2.892  0.9772 -1.3768 -0.5357
14072SOL     OW44911   3.795   8.104   0.855  0.2570  0.0318  0.4170
14072SOL    HW144912   3.831   8.100   0.949  0.4790 -0.6117  0.3051
14072SOL    HW244913   3.714   8.047   0.848 -0.3659  0.9067  0.4784
14075SOL     OW44914   7.659   1.420   1.781  0.5536 -0.1119  0.4645
14075SOL    HW144915   7.687   1.512   1.810 -2.4891  1.9612 -2.7132
14075SOL    HW244916   7.599   1.380   1.850  1.1844  0.6356  1.4650
14076SOL     OW44917   9.796   3.056   0.183 -0.2940 -0.0842 -0.0317
14076SOL    HW144918   9.766   3.101   0.267 -0.7340 -0.1600 -0.1478
14076SOL    HW244919   9.742   2.973   0.168  1.0657 -1.1109  0.6130
14077SOL     OW44920   5.680   8.199   2.593  0.2408 -0.1063  0.5813
14077SOL    HW144921   5.621   8.267   2.638 -0.5620  0.5335 -1.3991
14077SOL    HW244922   5.768   8.241   2.570 -0.3252  0.3328 -0.8144
14078SOL     OW44923   4.299   1.814   1.608  0.4042  0.0012  0.2912
14078SOL    HW144924   4.278   1.859   1.521 -0.2783  0.2995  0.6085
14078SOL    HW244925   4.398   1.802   1.616  0.5807  1.2672  0.1158
14079SOL     OW44926   0.799   4.076   4.049 -0.0302  0.0926  0.0155
14079SOL    HW144927   0.773   4.160   4.001  2.3189  0.7128 -0.2249
14079SOL    HW244928   0.881   4.038   4.007 -0.8413 -2.1310  0.3766
14080SOL     OW44929   8.260   1.020   4.071 -0.1112  0.2608 -0.1948
14080SOL    HW144930   8.167   0.985   4.063 -0.0496  0.3235 -1.1921
14080SOL    HW244931   8.292   1.008   4.165 -0.7489 -0.7045 -0.0967
14081SOL     OW44932   8.963   7.479   1.777  0.6232 -0.3553 -0.7763
14081SOL    HW144933   8.958   7.485   1.678 -1.6065 -1.6520 -0.7747
14081SOL    HW244934   8.999   7.389   1.803  2.1517  0.3474 -0.4003
14084SOL     OW44935   5.312   9.152   1.206 -0.5069  0.1260  0.3085
14084SOL    HW144936   5.290   9.064   1.249 -3.0689  0.5508 -0.0419
14084SOL    HW244937   5.376   9.202   1.264 -1.8956 -0.4075  2.3824
14085SOL     OW44938   1.337   6.148   0.904  0.1099  0.0313  0.0999
14085SOL    HW144939   1.378   6.234   0.935  0.0944  0.1372 -0.1725
14085SOL    HW244940   1.274   6.115   0.974 -0.3155  0.5372 -0.0388
14086SOL     OW44941   9.755   0.201   2.211 -0.1164 -0.0370  0.2805
14086SOL    HW144942   9.833   0.150   2.176  0.7625  1.6817 -0.3426
14086SOL    HW244943   9.787   0.267   2.280 -0.9272  1.0134 -0.3258
14087SOL     OW44944   0.880   2.132   2.745 -0.0315  0.6324 -0.3420
14087SOL    HW144945   0.832   2.220   2.744 -0.0176  0.6593  0.6015
14087SOL    HW244946   0.848   2.076   2.670 -3.3773 -0.2957  1.6800
14088SOL     OW44947   2.914   2.366   2.911 -0.4531  0.1729  0.0487
14088SOL    HW144948   3.002   2.352   2.865  0.0592 -1.8159  1.5411
14088SOL    HW244949   2.854   2.289   2.891 -1.1159  0.5188  0.6810
14090SOL     OW44950   5.927   6.591   2.396 -0.1393  0.9557  0.0933
14090SOL    HW144951   5.993   6.577   2.470 -0.6798  1.4082  0.6600
14090SOL    HW244952   5.972   6.572   2.308  0.7017  1.1085  0.4818
14091SOL     OW44953   4.374   2.590   1.586 -0.3568  0.2595  0.3250
14091SOL    HW144954   4.464   2.547   1.597 -0.5257 -0.1780  0.0191
14091SOL    HW244955   4.371   2.675   1.638  0.4480  0.5869 -0.1619
14092SOL     OW44956   0.386   1.469   2.587  0.6621  0.1668  0.2762
14092SOL    HW144957   0.471   1.449   2.635  1.4069  0.7967 -0.7477
14092SOL    HW244958   0.404   1.532   2.511 -0.2981 -1.5615 -1.4453
14093SOL     OW44959   5.247   6.162   1.557 -0.5911  0.0905 -0.1704
14093SOL    HW144960   5.270   6.243   1.611  1.6317 -0.2378 -0.5682
14093SOL    HW244961   5.176   6.109   1.604  1.3397 -0.2380  2.4873
14094SOL     OW44962   3.708   8.052   2.067  0.4230 -0.1826  0.0829
14094SOL    HW144963   3.657   8.065   1.982  0.2079 -1.0517  0.0699
14094SOL    HW244964   3.805   8.042   2.046  0.4568  0.2879  0.0036
14096SOL     OW44965   2.892   7.793   4.260  0.2117 -0.1192  0.4096
14096SOL    HW144966   2.934   7.812   4.349  0.2947 -1.8312  0.7505
14096SOL    HW244967   2.836   7.871   4.232 -0.3286  0.1613  2.2609
14097SOL     OW44968   2.819   4.031   3.889 -0.5336  0.0923  0.5693
14097SOL    HW144969   2.799   3.937   3.861  1.7386 -0.4512  0.6713
14097SOL    HW244970   2.756   4.093   3.842  0.8352 -1.1107 -3.0451
14098SOL     OW44971   7.117   8.390   1.936  0.0861  0.0263 -0.1676
14098SOL    HW144972   7.102   8.477   1.889  0.2958  0.1767  0.0424
14098SOL    HW244973   7.214   8.366   1.933  0.2947  0.6270  1.2046
14099SOL     OW44974   9.092   7.802   3.691  0.4499 -0.6574 -0.9050
14099SOL    HW144975   9.078   7.710   3.727 -0.4140 -1.0986 -2.3191
14099SOL    HW244976   9.092   7.868   3.766 -0.7182 -1.6239 -0.0400
14100SOL     OW44977   3.657   4.048   2.327 -0.5329  0.2575 -0.2113
14100SOL    HW144978   3.655   3.948   2.325 -1.4504  0.2845 -4.7101
14100SOL    HW244979   3.585   4.081   2.388 -0.7783 -1.8087  0.6705
14102SOL     OW44980   8.087   5.336   4.430  0.2235  0.9380  0.2413
14102SOL    HW144981   8.129   5.344   4.521  0.4734  0.9037  0.1294
14102SOL    HW244982   8.152   5.292   4.367 -0.1265  0.5363  0.1635
14103SOL     OW44983   4.061   7.823   4.375 -1.0750 -0.4143 -0.1973
14103SOL    HW144984   3.988   7.781   4.430  0.8569 -1.4738  1.6493
14103SOL    HW244985   4.137   7.849   4.434  0.6636 -0.6583 -2.2297
14104SOL     OW44986   9.261   8.418   2.932  0.0170  0.5681 -0.2518
14104SOL    HW144987   9.283   8.515   2.922 -0.6130  0.6080 -1.2899
14104SOL    HW244988   9.222   8.384   2.847  0.7756 -0.7448 -0.0759
14105SOL     OW44989   9.463   2.232   3.110  0.4790 -0.1303 -0.4211
14105SOL    HW144990   9.467   2.195   3.017  0.5763 -0.8423 -0.1388
14105SOL    HW244991   9.376   2.205   3.152  0.5252  0.0187 -0.2336
14106SOL     OW44992   4.047   3.098   2.046  0.6127 -0.1567 -0.0803
14106SOL    HW144993   3.953   3.133   2.033  0.5706 -0.3578 -0.3120
14106SOL    HW244994   4.071   3.104   2.143  0.3853 -0.0391 -0.0295
14107SOL     OW44995   0.893   3.507   0.067  0.3203  0.4687  0.0139
14107SOL    HW144996   0.796   3.522   0.045  0.3225 -0.4901 -0.6924
14107SOL    HW244997   0.938   3.462  -0.010  1.2592  0.6287  0.4628
14108SOL     OW44998   3.098   8.709   2.034  0.1262 -0.1226  0.7125
14108SOL    HW144999   3.139   8.705   1.943  0.7478  0.9762  0.9338
14108SOL    HW245000   3.081   8.616   2.067 -1.9698 -0.5092 -1.3517
14109SOL     OW45001   2.008   1.651   0.153 -0.0070  0.0435 -0.0516
14109SOL    HW145002   1.917   1.680   0.123 -0.2607 -1.3624 -0.7279
14109SOL    HW245003   2.001   1.598   0.237  0.2806  0.6521  0.3574
14110SOL     OW45004   0.325   8.992   1.862 -0.0483 -0.2553  0.0105
14110SOL    HW145005   0.280   9.047   1.791  1.2585  0.6723 -0.1104
14110SOL    HW245006   0.323   8.896   1.836  0.1290  0.0392 -1.1290
14113SOL     OW45007   5.894   0.585   1.401  0.2056 -0.5896 -0.1518
14113SOL    HW145008   5.898   0.632   1.489  0.7546 -0.3878 -0.2813
14113SOL    HW245009   5.962   0.625   1.339  2.2131 -3.0257  0.4360
14114SOL     OW45010   4.750   8.932   0.231  0.4322  0.3886  0.2561
14114SOL    HW145011   4.767   8.993   0.309 -1.2274 -1.3324  2.0105
14114SOL    HW245012   4.652   8.931   0.210  0.6193 -0.6370 -0.6354
14115SOL     OW45013   2.999   7.979   3.014  0.3524  0.2494  0.8597
14115SOL    HW145014   2.994   7.900   3.074 -0.2019  0.6935  1.4180
14115SOL    HW245015   3.067   7.964   2.943  0.8128 -0.4013  1.4345
14116SOL     OW45016   0.719   5.084   4.325  0.1817 -0.1125  0.0384
14116SOL    HW145017   0.785   5.115   4.256 -1.0594  0.4204 -0.9338
14116SOL    HW245018   0.700   5.158   4.389  2.5051 -1.0829  1.9126
14117SOL     OW45019   5.112   7.101   1.863  0.0299 -0.0148 -0.7824
14117SOL    HW145020   5.049   7.124   1.937  1.8499  0.5186  0.6410
14117SOL    HW245021   5.091   7.157   1.783 -0.4585  1.1167  0.1142
14119SOL     OW45022   2.371   8.906   0.104 -0.3045 -0.0824 -0.2965
14119SOL    HW145023   2.359   8.981   0.169 -0.8352  2.1698 -2.9010
14119SOL    HW245024   2.468   8.895   0.083 -0.4977  2.2784 -2.5838
14120SOL     OW45025   6.997   8.392   3.926  0.1114  0.4544 -0.4967
14120SOL    HW145026   6.929   8.464   3.937  1.3223  1.4780  0.5378
14120SOL    HW245027   7.035   8.396   3.834 -0.1149  0.8882 -0.5723
14121SOL     OW45028   9.990   0.941   0.095  0.5742  0.4052  0.0101
14121SOL    HW145029  10.047   1.018   0.066 -0.1843  0.0499 -2.5801
14121SOL    HW245030   9.912   0.933   0.033 -1.7936  0.2713  2.8859
14122SOL     OW45031   4.183   6.543   2.387  0.4366  0.0249 -0.5365
14122SOL    HW145032   4.112   6.589   2.333  1.0708  0.9388 -0.5862
14122SOL    HW245033   4.144   6.459   2.426 -0.5500  0.2873 -0.9213
14123SOL     OW45034   1.549   0.020   0.811 -0.1670 -0.5410 -0.5390
14123SOL    HW145035   1.462   0.067   0.795 -0.5150 -1.1564 -0.4502
14123SOL    HW245036   1.615   0.085   0.849 -0.5913 -0.0773 -0.5930
14124SOL     OW45037   2.378   4.740   1.708  0.3377 -0.0481 -0.2122
14124SOL    HW145038   2.318   4.697   1.641  0.8354 -1.6050  0.3160
14124SOL    HW245039   2.436   4.671   1.750  0.3997  0.9769  1.4520
14125SOL     OW45040   0.180   8.630   2.408  0.0109  0.2158 -0.2920
14125SOL    HW145041   0.198   8.537   2.440 -0.8139  0.1569  0.0286
14125SOL    HW245042   0.224   8.645   2.320 -0.1284 -0.5833 -0.4914
14127SOL     OW45043   9.686   9.014   2.733 -0.6039 -0.2943 -0.4611
14127SOL    HW145044   9.736   9.080   2.677  0.9565 -0.6054  0.5346
14127SOL    HW245045   9.751   8.956   2.783 -1.9535 -1.6875 -0.2672
14129SOL     OW45046   0.719   1.974   0.939  0.1484 -0.1168 -1.0542
14129SOL    HW145047   0.801   2.020   0.906  1.2243 -1.7341 -0.6887
14129SOL    HW245048   0.647   1.980   0.869  0.5835  1.2500 -1.4013
14130SOL     OW45049   7.550   1.256   1.577  0.3623  0.1166 -0.1340
14130SOL    HW145050   7.565   1.161   1.604 -2.7733 -0.1946  0.7315
14130SOL    HW245051   7.596   1.317   1.642 -1.7735 -0.7466  2.2357
14132SOL     OW45052   2.156   2.167   1.811  0.3193  0.6183 -0.0538
14132SOL    HW145053   2.158   2.267   1.804 -0.0389  0.5430 -1.2491
14132SOL    HW245054   2.126   2.141   1.903  0.8607  1.6071  0.4126
14133SOL     OW45055   1.284   2.991   1.968 -0.1915 -0.0561 -0.3944
14133SOL    HW145056   1.282   3.065   1.901 -1.7754 -0.1695 -0.4801
14133SOL    HW245057   1.204   2.998   2.028  0.0662 -1.2342  0.1016
14134SOL     OW45058   0.939   5.880   1.036  0.8560 -0.1450 -0.3766
14134SOL    HW145059   0.885   5.822   0.976  0.5655 -0.8832  0.5926
14134SOL    HW245060   1.017   5.828   1.072  0.5216  0.0205  0.5995
14135SOL     OW45061   9.767   2.249   4.329  0.3112  0.2891 -0.4559
14135SOL    HW145062   9.786   2.151   4.329  0.3724  0.3041 -1.5295
14135SOL    HW245063   9.838   2.298   4.278  0.5772  0.9587  0.5247
14136SOL     OW45064   3.100   7.916   0.100  0.1242  0.4225  0.7925
14136SOL    HW145065   3.124   7.879   0.011  1.8340  0.3071  1.2915
14136SOL    HW245066   3.096   8.016   0.095 -3.2065  0.2861 -0.2327
14138SOL     OW45067   4.634   9.015   3.885 -0.3233 -0.2433 -0.1778
14138SOL    HW145068   4.725   9.030   3.924 -0.1390  0.9823 -1.0386
14138SOL    HW245069   4.566   9.008   3.958  0.0669  1.6274  0.3987
14139SOL     OW45070   7.755   2.772   1.117  0.7112  0.4729 -0.3129
14139SOL    HW145071   7.766   2.759   1.216 -0.4769 -2.5693 -0.5343
14139SOL    HW245072   7.658   2.787   1.096  0.8901  0.5716 -1.0766
14141SOL     OW45073   3.010   3.783   1.992 -0.5064 -0.1623  0.7493
14141SOL    HW145074   2.924   3.830   1.971 -0.5654 -0.1553  1.0128
14141SOL    HW245075   3.047   3.743   1.908  0.4447  1.8493  0.1807
14142SOL     OW45076   3.066   4.300   1.678 -0.7576 -0.1104 -0.2803
14142SOL    HW145077   3.141   4.348   1.723 -1.7071  2.0230 -0.8891
14142SOL    HW245078   3.098   4.261   1.592  0.0093 -0.4633  0.1671
14143SOL     OW45079   6.694   1.512   2.675 -0.4560  0.1673  0.3806
14143SOL    HW145080   6.681   1.610   2.660  1.3614  0.1935 -1.3006
14143SOL    HW245081   6.679   1.490   2.771  1.5563  2.5291  1.2808
14145SOL     OW45082   1.191   3.153   3.444  0.2539 -0.2841 -0.3079
14145SOL    HW145083   1.227   3.114   3.529 -1.0583 -1.0288 -0.0730
14145SOL    HW245084   1.262   3.205   3.398  0.8696  0.4809  1.4628
14146SOL     OW45085   2.962   2.090   1.256 -0.1552  1.0199 -0.4285
14146SOL    HW145086   2.881   2.045   1.220  1.4375 -0.2901 -2.4189
14146SOL    HW245087   3.040   2.028   1.254  1.2833  2.7456  0.0102
14147SOL     OW45088   9.655   4.672   0.467  0.3847  0.1294 -0.4272
14147SOL    HW145089   9.697   4.643   0.381 -0.4095 -1.0651 -0.4220
14147SOL    HW245090   9.598   4.753   0.450  0.7061  0.2614 -0.9011
14148SOL     OW45091   3.741   2.639   2.421  0.0363  0.2571 -0.5402
14148SOL    HW145092   3.799   2.622   2.501 -0.1373 -2.4285 -0.9550
14148SOL    HW245093   3.690   2.556   2.399 -3.5194  2.3457 -0.5688
14149SOL     OW45094   9.955   4.028   0.633 -0.7262 -0.0335 -1.2695
14149SOL    HW145095  10.039   4.070   0.667 -1.6061  0.4223  0.4134
14149SOL    HW245096   9.946   4.046   0.535  1.2494 -0.3130 -1.5241
14150SOL     OW45097   1.988   3.041   3.425  0.9321 -0.3979  0.5538
14150SOL    HW145098   2.033   2.963   3.383 -1.2148 -1.3877  0.0094
14150SOL    HW245099   2.003   3.123   3.370 -1.7035 -1.6360 -2.1322
14152SOL     OW45100   2.671   3.032   0.018 -0.1086  0.1463  0.5433
14152SOL    HW145101   2.596   3.025  -0.047 -1.4913 -0.0137  2.1167
14152SOL    HW245102   2.758   3.023  -0.030 -0.8620  5.0149 -2.0400
14153SOL     OW45103   4.955   9.788   2.297  0.3922 -0.2362  0.1275
14153SOL    HW145104   4.944   9.871   2.352 -2.2319 -0.6342  0.2828
14153SOL    HW245105   4.930   9.708   2.352  0.8481 -0.9276 -0.6675
14154SOL     OW45106   2.720   7.295   2.087  0.0066 -0.4357 -0.4352
14154SOL    HW145107   2.747   7.380   2.041 -0.6697  0.5221  0.9324
14154SOL    HW245108   2.656   7.245   2.029  2.3071 -1.2713 -2.3821
14155SOL     OW45109   2.622   1.832   2.512  0.1194  0.8388 -0.3240
14155SOL    HW145110   2.678   1.915   2.503  1.6440 -0.4018 -2.7084
14155SOL    HW245111   2.628   1.779   2.428  0.6809 -2.6364  1.8198
14157SOL     OW45112   8.227   7.189   1.067  0.4804  0.2483  0.1678
14157SOL    HW145113   8.186   7.192   1.157 -0.5962  0.9879 -0.3439
14157SOL    HW245114   8.156   7.192   0.997  1.2401 -1.3476 -0.7094
14159SOL     OW45115   4.783   9.021   1.034 -0.1708 -0.6133 -0.4264
14159SOL    HW145116   4.767   9.079   0.955 -0.7856 -0.8445 -0.4728
14159SOL    HW245117   4.841   8.944   1.008  1.9613  0.8089 -0.0063
14160SOL     OW45118   7.997   2.375   1.094  0.1448  0.5317 -0.4937
14160SOL    HW145119   7.959   2.282   1.101 -1.4211  1.2356  0.9233
14160SOL    HW245120   8.081   2.380   1.147 -1.4095  0.6781  2.0893
14161SOL     OW45121   1.506   9.409   1.184  0.0888 -0.3767  0.5062
14161SOL    HW145122   1.433   9.350   1.218 -1.3587  1.6255  0.9515
14161SOL    HW245123   1.573   9.424   1.257 -2.2989  2.7906  2.1353
14162SOL     OW45124   3.438   0.325   4.218 -0.0608 -0.4111 -0.0463
14162SOL    HW145125   3.385   0.321   4.303 -0.1573 -0.3217 -0.1028
14162SOL    HW245126   3.484   0.414   4.212 -2.5909  0.8273 -1.6255
14163SOL     OW45127   1.203   9.118   3.955  0.6587  0.3705 -0.0686
14163SOL    HW145128   1.293   9.108   3.997 -0.4664 -0.9468  2.1555
14163SOL    HW245129   1.158   9.200   3.991  0.4123  0.2552 -0.1112
14164SOL     OW45130   0.615   4.842   4.198 -0.5248  0.4455  0.2469
14164SOL    HW145131   0.644   4.929   4.238 -0.8659  1.0439 -0.7971
14164SOL    HW245132   0.528   4.853   4.151 -0.3407 -0.3474 -0.3028
14166SOL     OW45133   2.166   4.063   3.741 -0.2292 -0.0769 -0.3995
14166SOL    HW145134   2.192   4.108   3.827 -1.4574  1.8182 -0.9731
14166SOL    HW245135   2.088   4.003   3.757  0.5714 -0.9845  0.1209
14170SOL     OW45136   0.153   2.322   3.036  0.1451 -0.6145 -0.4198
14170SOL    HW145137   0.169   2.309   3.134 -2.4767  1.8115  0.3858
14170SOL    HW245138   0.239   2.348   2.992  0.8828  0.8024  1.7286
14171SOL     OW45139   6.071   7.395   3.820 -0.0277 -0.1929 -0.2189
14171SOL    HW145140   6.001   7.334   3.858  0.4283 -0.7793 -0.3041
14171SOL    HW245141   6.031   7.453   3.750 -0.4656 -0.4127 -0.1489
14172SOL     OW45142   1.343   2.490   2.379 -0.2850 -0.7251  0.1222
14172SOL    HW145143   1.322   2.554   2.452 -2.3664 -0.8532 -0.3182
14172SOL    HW245144   1.433   2.449   2.394 -0.4391 -0.3100  2.2698
14174SOL     OW45145   8.506   3.401   2.610  0.0046 -0.5375 -0.3608
14174SOL    HW145146   8.601   3.369   2.609  0.2549  0.1876 -0.4114
14174SOL    HW245147   8.501   3.488   2.661 -0.9233 -1.4759  1.2011
14175SOL     OW45148   2.515   0.274   1.872 -0.2878  0.0848 -0.6134
14175SOL    HW145149   2.594   0.248   1.817 -0.9358 -0.1792 -1.4307
14175SOL    HW245150   2.431   0.248   1.824 -0.8916  1.1523 -0.1584
14176SOL     OW45151   3.001   8.821   1.144 -0.0668 -0.0316 -0.2443
14176SOL    HW145152   2.966   8.904   1.189  0.0541 -1.7596  3.1646
14176SOL    HW245153   2.965   8.817   1.050 -0.2118  3.7558 -0.4551
14177SOL     OW45154   8.955   1.004   2.575 -0.3552  0.3010  0.4344
14177SOL    HW145155   9.006   1.083   2.609  2.8741 -1.6836  0.4473
14177SOL    HW245156   8.915   0.956   2.653 -2.1053  1.7355  0.4490
14178SOL     OW45157   4.026   3.451   3.884  0.0122 -0.4317 -0.1020
14178SOL    HW145158   4.006   3.353   3.888  1.3512 -0.7479 -0.5815
14178SOL    HW245159   4.122   3.466   3.908 -0.3769  0.8484  0.7295
14179SOL     OW45160   9.890   6.487   3.570  0.3948  0.7160 -0.1432
14179SOL    HW145161   9.935   6.513   3.485 -1.1652 -0.8615 -1.5057
14179SOL    HW245162   9.926   6.399   3.601  0.0817  0.6940  0.1610
14180SOL     OW45163   5.408   1.201   3.502  0.7012  0.0175  0.1675
14180SOL    HW145164   5.429   1.119   3.448 -2.1976 -0.2350 -0.6062
14180SOL    HW245165   5.403   1.281   3.442 -0.5715  0.0692  0.3412
14181SOL     OW45166   9.969   8.947   1.242 -0.5250  0.3505  0.1050
14181SOL    HW145167   9.911   8.889   1.300  0.3534 -1.6892 -0.9759
14181SOL    HW245168   9.913   8.999   1.178 -1.3734  1.1091  1.4621
14182SOL     OW45169   1.436   6.935   1.573  0.0117  0.0247  0.1709
14182SOL    HW145170   1.477   7.024   1.591 -1.2978  0.7059 -0.1198
14182SOL    HW245171   1.336   6.945   1.568 -0.1878 -1.5708  0.7937
14183SOL     OW45172   1.498   0.639   3.148 -0.1918  0.4498 -0.5681
14183SOL    HW145173   1.523   0.733   3.168  0.8073  0.3555 -1.3523
14183SOL    HW245174   1.419   0.637   3.087 -0.7485  0.7679  0.1396
14184SOL     OW45175   2.987   5.858   2.652 -0.2190  0.1660 -0.2821
14184SOL    HW145176   2.991   5.802   2.735  0.0144  2.1744  1.0957
14184SOL    HW245177   3.078   5.862   2.610 -0.5539 -1.7167 -1.2668
14185SOL     OW45178   1.102   6.191   0.774  0.4117  0.0798  0.2096
14185SOL    HW145179   1.188   6.179   0.824  1.4999  0.9920 -1.3881
14185SOL    HW245180   1.098   6.127   0.697 -1.3105 -1.4083  1.4958
14186SOL     OW45181   3.618   7.291   2.031  0.1632  0.0220 -0.1389
14186SOL    HW145182   3.660   7.331   2.112  1.5292  1.8665 -1.6818
14186SOL    HW245183   3.684   7.232   1.985  0.2789  1.0012 -1.2594
14188SOL     OW45184   6.042   0.088   3.889  0.7324  0.5652  0.2547
14188SOL    HW145185   5.958   0.131   3.857  1.5643  1.1637 -1.1571
14188SOL    HW245186   6.067   0.124   3.979 -0.1430  0.8763  0.3705
14191SOL     OW45187   0.243   8.921   2.852 -0.0915 -0.1291  0.4409
14191SOL    HW145188   0.186   8.887   2.927  2.1809 -0.6711  2.0066
14191SOL    HW245189   0.188   8.933   2.770 -2.0837 -2.1828  1.4376
14192SOL     OW45190   2.124   2.018   0.183  0.1266 -0.3560 -0.4310
14192SOL    HW145191   2.133   2.087   0.111  0.1300 -2.1412 -2.1742
14192SOL    HW245192   2.178   1.937   0.159 -0.0072 -1.0551  1.5108
14193SOL     OW45193   3.470   4.071   1.704 -0.0265 -0.0299  0.3361
14193SOL    HW145194   3.455   4.169   1.710  0.2016  0.0879 -0.7965
14193SOL    HW245195   3.562   4.049   1.736  1.4884  0.6755 -3.2687
14194SOL     OW45196   1.844   8.556   3.276 -0.2900  0.4519 -0.5141
14194SOL    HW145197   1.808   8.647   3.254  1.8687  1.5490  0.3321
14194SOL    HW245198   1.847   8.545   3.375  1.9026  0.4847 -0.5689
14196SOL     OW45199   3.417   8.103   1.054 -0.0235  0.4888 -0.0555
14196SOL    HW145200   3.463   8.049   0.984 -0.9927 -1.4343  0.7488
14196SOL    HW245201   3.481   8.123   1.128 -0.0111 -0.6921  0.2552
14197SOL     OW45202   2.510   1.603   1.936 -0.0199 -0.2088  0.5906
14197SOL    HW145203   2.510   1.574   1.840  1.3301 -0.3709  0.6280
14197SOL    HW245204   2.516   1.703   1.940  0.5691 -0.2401  0.5110
14198SOL     OW45205   4.330   7.658   3.846  0.4907  0.2681  0.2736
14198SOL    HW145206   4.271   7.705   3.912 -0.3715  0.4917 -0.6559
14198SOL    HW245207   4.414   7.629   3.892  0.7919  2.1971  1.0095
14199SOL     OW45208   0.478   7.028   3.719 -0.1308 -0.0389 -0.2997
14199SOL    HW145209   0.564   7.043   3.671 -0.0255 -1.2111 -0.4850
14199SOL    HW245210   0.492   6.961   3.793 -0.5245  0.9427  0.6854
14200SOL     OW45211   3.904   8.958   4.108 -0.7653  0.0728 -0.1344
14200SOL    HW145212   3.888   9.050   4.073  0.4276  0.3711  0.1106
14200SOL    HW245213   3.848   8.893   4.057 -1.1555  0.8530 -0.7090
14202SOL     OW45214   5.456   7.928   4.345 -0.4210  0.4673  0.5818
14202SOL    HW145215   5.461   7.828   4.348 -1.3275  0.3597 -0.8494
14202SOL    HW245216   5.546   7.966   4.362 -0.0883 -0.5943  1.2581
14203SOL     OW45217   9.598   2.051   1.485 -0.1511 -0.3683  0.3356
14203SOL    HW145218   9.686   2.005   1.476  0.0078  0.0498 -0.3612
14203SOL    HW245219   9.572   2.056   1.581  1.2596  0.7350  0.6771
14204SOL     OW45220   0.235   7.924   3.063  0.0225 -0.2259 -1.1585
14204SOL    HW145221   0.278   7.844   3.022  0.3458 -0.6758  0.0593
14204SOL    HW245222   0.232   7.914   3.162  0.3690  1.4086 -0.9693
14205SOL     OW45223   9.490   8.286   0.792  0.3981 -0.2609  0.2383
14205SOL    HW145224   9.529   8.229   0.863  0.5462 -2.3490 -1.4781
14205SOL    HW245225   9.395   8.259   0.774  0.3446  0.2666 -0.3380
14206SOL     OW45226   8.922   5.060   2.542 -0.0577 -0.3435 -0.0125
14206SOL    HW145227   8.912   5.064   2.641  0.1491  0.7613 -0.0336
14206SOL    HW245228   8.964   5.144   2.509 -0.2171 -0.6625 -1.0534
14207SOL     OW45229   2.543   9.917   1.396  0.3780 -0.3433  0.2985
14207SOL    HW145230   2.455   9.959   1.371 -0.0748 -0.0231  2.3078
14207SOL    HW245231   2.562   9.936   1.492  1.3848 -2.6849  0.5751
14209SOL     OW45232   3.447   4.353   0.358 -0.5600 -0.3125  0.4677
14209SOL    HW145233   3.474   4.413   0.283 -0.0622  0.4896  1.2855
14209SOL    HW245234   3.432   4.407   0.441 -0.5410 -1.2550  1.0952
14210SOL     OW45235   7.447   2.782   1.916 -0.3575 -0.0723  0.1566
14210SOL    HW145236   7.406   2.846   1.851 -0.0734  0.4843  0.5193
14210SOL    HW245237   7.410   2.691   1.901 -0.4203  0.0834 -0.6791
14211SOL     OW45238   2.905   9.406   3.363  0.2299 -0.4111 -0.4728
14211SOL    HW145239   2.973   9.471   3.396 -0.1484 -1.1579  1.8277
14211SOL    HW245240   2.950   9.336   3.308  1.3551 -0.9463  1.1006
14213SOL     OW45241   3.166   0.605   0.005  0.0362 -0.2670  0.1579
14213SOL    HW145242   3.148   0.552  -0.078 -0.5819 -0.6713  0.5400
14213SOL    HW245243   3.181   0.542   0.082  0.8311  0.1027  0.3038
14214SOL     OW45244   7.384   2.464   2.905  0.1239  0.4474 -0.0649
14214SOL    HW145245   7.477   2.434   2.925 -0.0539  0.9537  1.5752
14214SOL    HW245246   7.387   2.549   2.852  0.5891  0.3198 -0.2473
14215SOL     OW45247   2.833   0.707   2.777  0.7083 -0.2380  0.4669
14215SOL    HW145248   2.838   0.795   2.823 -0.5004  0.3050 -0.4102
14215SOL    HW245249   2.925   0.668   2.768  1.4650  1.7150 -0.6306
14216SOL     OW45250   4.870   9.091   4.015 -0.3602 -0.2521  0.2901
14216SOL    HW145251   4.811   9.166   4.045 -0.6924  0.0415 -1.0638
14216SOL    HW245252   4.964   9.124   4.005 -0.9439  0.6461 -2.7011
14217SOL     OW45253   3.241   3.467   2.729  0.2936  0.1356 -0.2277
14217SOL    HW145254   3.227   3.368   2.729  0.8158  0.0029  2.3999
14217SOL    HW245255   3.268   3.496   2.821 -1.3026  2.9384 -0.6022
14219SOL     OW45256   7.067   9.694   1.639  0.1561  0.1747  0.2356
14219SOL    HW145257   6.987   9.694   1.580  0.9402  0.0366 -0.8530
14219SOL    HW245258   7.049   9.747   1.721 -0.8925  0.5203 -0.2150
14220SOL     OW45259   3.969   2.700   2.581  0.1080  0.3352 -0.0407
14220SOL    HW145260   3.968   2.600   2.572  0.8711  0.2620  0.5883
14220SOL    HW245261   4.029   2.739   2.511  1.6556  0.1706  1.1596
14221SOL     OW45262   2.387   8.153   3.504  0.0362 -0.2428 -0.1507
14221SOL    HW145263   2.352   8.227   3.562 -0.0313  0.4430 -1.0396
14221SOL    HW245264   2.388   8.068   3.555 -1.6049  0.0048  0.3349
14222SOL     OW45265   0.732   8.243   4.220  0.0435  0.0482 -0.0620
14222SOL    HW145266   0.791   8.224   4.142  0.4402 -0.6330  0.3980
14222SOL    HW245267   0.778   8.304   4.283 -0.2328  0.5078 -0.2983
14223SOL     OW45268   9.005   2.288   3.965 -0.1844  0.2569 -0.1523
14223SOL    HW145269   9.015   2.230   4.046 -1.0989  1.0531  0.5452
14223SOL    HW245270   8.979   2.232   3.887  1.2207 -0.5945 -0.0252
14224SOL     OW45271   7.453   8.714   0.956 -0.1786 -0.1077 -0.4720
14224SOL    HW145272   7.428   8.779   1.028  0.7197 -0.2457 -0.0244
14224SOL    HW245273   7.438   8.755   0.866  1.0708  0.9752 -0.1860
14225SOL     OW45274   4.015   2.748   0.379 -0.2758  0.0668 -0.5778
14225SOL    HW145275   4.093   2.716   0.432 -0.3481 -0.5514 -0.8313
14225SOL    HW245276   3.939   2.771   0.440 -0.2283 -0.2746 -0.3903
14226SOL     OW45277   2.292   7.093   0.389  0.2587 -0.1049 -0.0446
14226SOL    HW145278   2.246   7.174   0.427 -0.6574 -0.1289 -1.0621
14226SOL    HW245279   2.389   7.097   0.411 -0.1968  0.0224  2.0268
14227SOL     OW45280   0.990   0.005   3.584 -0.3341 -0.0032  0.2387
14227SOL    HW145281   0.910   0.064   3.584  0.0453  0.5077  0.3816
14227SOL    HW245282   1.072   0.058   3.604 -0.0418 -0.6419  0.7753
14228SOL     OW45283   4.808   7.923   4.011  0.9689 -0.2412 -0.1945
14228SOL    HW145284   4.780   7.850   4.074 -1.1240  0.4180 -0.3292
14228SOL    HW245285   4.826   8.007   4.063  2.2714 -0.5269 -0.1636
14229SOL     OW45286   4.943   9.827   0.751 -0.0038  0.1039 -0.2242
14229SOL    HW145287   4.980   9.917   0.729  0.7693 -0.7906 -2.7467
14229SOL    HW245288   5.006   9.779   0.812 -0.1985  1.0572  0.7595
14230SOL     OW45289   7.613   1.866   2.653  0.1437  0.5701 -0.4788
14230SOL    HW145290   7.655   1.931   2.717 -0.1319  1.1617 -0.9057
14230SOL    HW245291   7.675   1.788   2.641  0.4989  0.7750 -0.0159
14231SOL     OW45292   8.561   5.763   2.129 -1.1505  0.0669 -0.1626
14231SOL    HW145293   8.607   5.811   2.054 -0.5572 -1.0404 -0.5151
14231SOL    HW245294   8.581   5.809   2.216  1.3748 -0.9293 -0.1816
14232SOL     OW45295   3.183   1.644   1.351 -0.2650 -0.1420  0.7729
14232SOL    HW145296   3.273   1.602   1.362  0.3142  0.9223  0.0884
14232SOL    HW245297   3.112   1.574   1.363  0.5855 -0.6917  2.8617
14233SOL     OW45298   9.444   7.402   2.372 -0.5028  0.0363  0.1517
14233SOL    HW145299   9.540   7.396   2.399 -0.3190  3.1962  0.4532
14233SOL    HW245300   9.386   7.376   2.449  0.0858 -1.1798  0.1977
14234SOL     OW45301   5.899   9.826   4.260  0.1330  0.0145  0.4498
14234SOL    HW145302   5.820   9.783   4.216 -0.0068  1.6192 -0.9463
14234SOL    HW245303   5.874   9.859   4.351 -0.6566  0.0335  0.2237
14235SOL     OW45304   2.062   9.841   1.190  0.0730 -0.5024 -0.0281
14235SOL    HW145305   2.011   9.901   1.252 -0.1843  1.0428 -1.7194
14235SOL    HW245306   1.998   9.780   1.143  0.0366 -0.2430 -0.3189
14238SOL     OW45307   1.117   4.475   1.336  0.3412 -0.0512 -0.3371
14238SOL    HW145308   1.121   4.389   1.387  1.7656 -0.3042 -0.8342
14238SOL    HW245309   1.116   4.552   1.400  0.7823 -0.3965  0.0903
14239SOL     OW45310   4.744   9.902   3.457 -0.6877  0.5061 -0.0528
14239SOL    HW145311   4.739   9.842   3.537 -0.4742  0.5768  0.0121
14239SOL    HW245312   4.695   9.859   3.381  0.1619 -0.1234 -0.2513
14240SOL     OW45313   1.151   4.669   1.521  0.3519  0.0409  0.5760
14240SOL    HW145314   1.064   4.679   1.568  0.4348 -2.6015  1.3997
14240SOL    HW245315   1.182   4.758   1.486 -1.6257  1.3430  2.0828
14241SOL     OW45316   9.176   0.339   2.658 -0.3462  0.4881 -0.6104
14241SOL    HW145317   9.107   0.267   2.664 -0.3593  0.5331 -0.2419
14241SOL    HW245318   9.239   0.332   2.736 -0.1107  0.6307 -0.7866
14242SOL     OW45319   0.426   6.389   3.222 -0.0649 -0.3340 -0.1047
14242SOL    HW145320   0.398   6.366   3.315 -0.7578  1.1079  0.0611
14242SOL    HW245321   0.356   6.359   3.158 -1.1108  1.5253  0.1370
14243SOL     OW45322   8.692   7.005   3.210 -0.0301  0.2056  0.4534
14243SOL    HW145323   8.676   7.066   3.287  0.9411  0.3399  0.5498
14243SOL    HW245324   8.745   7.052   3.140 -1.2852  0.2291 -0.4943
14244SOL     OW45325   8.581   2.564   0.869  0.5393  0.6241 -0.6699
14244SOL    HW145326   8.582   2.663   0.886 -0.2950  0.4681  0.3631
14244SOL    HW245327   8.542   2.517   0.948  1.7169 -0.6112 -0.8082
14245SOL     OW45328   9.962   0.624   2.684 -0.0039  0.0244  0.1840
14245SOL    HW145329   9.890   0.694   2.689  0.7024  0.9274 -1.9640
14245SOL    HW245330  10.046   0.659   2.725 -0.6084 -0.8607  2.2607
14246SOL     OW45331   9.306   2.483   2.969  0.6148 -0.3469 -0.2145
14246SOL    HW145332   9.269   2.451   3.056 -0.8249  1.3476 -0.1792
14246SOL    HW245333   9.305   2.583   2.967  2.9739 -0.2944 -1.1933
14248SOL     OW45334   8.878   1.950   1.257 -0.2564  0.0206 -0.0046
14248SOL    HW145335   8.781   1.968   1.273 -0.6894 -1.4218 -0.8993
14248SOL    HW245336   8.893   1.930   1.161  0.8221 -0.4044  0.2428
14249SOL     OW45337   1.189   4.484   3.680  0.2846 -0.0405 -0.6239
14249SOL    HW145338   1.222   4.562   3.627  1.0850  0.4711  0.6305
14249SOL    HW245339   1.169   4.512   3.773  0.4385 -1.2980 -0.2019
14250SOL     OW45340   0.459   2.482   1.853 -0.2135  0.4782  0.2722
14250SOL    HW145341   0.486   2.475   1.757  1.5839 -1.1597  0.8694
14250SOL    HW245342   0.488   2.570   1.891  0.9209  0.2728 -0.1259
14251SOL     OW45343   9.318   1.560   0.416 -0.2733  0.1071 -0.0008
14251SOL    HW145344   9.228   1.539   0.379 -1.8139  0.9466  3.1361
14251SOL    HW245345   9.345   1.490   0.482  1.2477  0.0207 -0.6802
14252SOL     OW45346   2.965   3.399   0.847 -0.1143  0.2843 -0.7489
14252SOL    HW145347   2.918   3.364   0.766 -0.0784  0.2180 -0.7412
14252SOL    HW245348   2.900   3.448   0.905  0.2862  2.1766 -1.8624
14253SOL     OW45349   1.128   2.894   2.994 -1.1375  0.0461  0.1408
14253SOL    HW145350   1.100   2.967   2.932 -0.8657 -0.1540 -0.2155
14253SOL    HW245351   1.055   2.878   3.061 -0.7597  1.3826  0.8953
14254SOL     OW45352   7.942   3.476   2.123 -0.6253 -0.4136  0.2067
14254SOL    HW145353   7.868   3.410   2.113 -0.1224 -0.6623 -2.2125
14254SOL    HW245354   7.933   3.523   2.211 -3.1258 -1.0720  0.3469
14255SOL     OW45355   9.655   4.988   0.782 -0.1201 -0.0228  0.3327
14255SOL    HW145356   9.728   5.055   0.770  0.4006 -0.5230  0.7232
14255SOL    HW245357   9.586   5.002   0.711  1.1768 -0.6472 -1.0706
14256SOL     OW45358   8.768   0.938   1.984  0.0736  0.2335  0.0969
14256SOL    HW145359   8.861   0.907   1.962 -0.2782 -0.9656  0.2462
14256SOL    HW245360   8.753   0.933   2.082  0.7443  3.0359  0.3697
14257SOL     OW45361   0.049   2.526   3.339 -0.8437  0.3827 -0.5069
14257SOL    HW145362  -0.040   2.566   3.317 -1.8852 -2.3364 -1.3918
14257SOL    HW245363   0.114   2.549   3.267 -1.0485  1.6180 -0.3112
14258SOL     OW45364   5.336   7.766   3.833  0.2073 -0.4964 -0.9851
14258SOL    HW145365   5.363   7.684   3.784 -0.6086 -0.6126 -1.2517
14258SOL    HW245366   5.339   7.845   3.772 -1.8018 -0.8091 -1.5238
14259SOL     OW45367   9.620   8.211   3.543  0.3246  0.0106  0.5916
14259SOL    HW145368   9.551   8.267   3.496 -1.3142 -1.7150  0.8972
14259SOL    HW245369   9.710   8.228   3.502 -0.6695  0.4344 -1.4716
14260SOL     OW45370   6.849   9.492   2.968  0.0728 -0.0482 -0.1849
14260SOL    HW145371   6.886   9.418   3.023 -1.6473 -0.8200 -0.0207
14260SOL    HW245372   6.914   9.518   2.897  1.3784 -0.5623  0.8172
14261SOL     OW45373   2.469   5.980   1.129 -0.2141 -0.0667  0.0713
14261SOL    HW145374   2.464   6.041   1.050 -1.8676  0.3239  0.4659
14261SOL    HW245375   2.377   5.951   1.154  0.2676  0.0956  2.0818
14262SOL     OW45376   8.121   1.370   4.177 -0.3972 -0.1041  0.1699
14262SOL    HW145377   8.101   1.460   4.215  0.2621 -0.0662  0.4204
14262SOL    HW245378   8.215   1.344   4.199 -0.5542 -0.8099  0.0109
14263SOL     OW45379   8.900   1.940   1.774 -0.5848  0.0357  0.3403
14263SOL    HW145380   8.829   1.967   1.839 -0.4962 -0.1869  0.5320
14263SOL    HW245381   8.885   1.985   1.686 -0.9922 -0.0582  0.3645
14264SOL     OW45382   3.968   7.292   2.623  0.1066  0.0771  0.0005
14264SOL    HW145383   3.962   7.207   2.675  4.0621 -0.1938  0.1904
14264SOL    HW245384   3.887   7.348   2.642 -1.8908 -2.9692  0.9825
14265SOL     OW45385   4.187   8.175   2.228  0.4417  0.1835  0.2875
14265SOL    HW145386   4.240   8.251   2.267 -0.0497  0.2998  0.7370
14265SOL    HW245387   4.158   8.114   2.302  0.0265  0.0674  0.0272
14267SOL     OW45388   9.948   7.405   0.928  0.1067  0.3382 -0.3500
14267SOL    HW145389   9.959   7.308   0.905 -0.5047  0.1487  0.1358
14267SOL    HW245390   9.860   7.437   0.892  0.5023  0.8360 -0.8971
14270SOL     OW45391   1.001   5.412   2.913  0.4227 -0.3688 -0.2112
14270SOL    HW145392   1.089   5.389   2.872  0.4598  3.0384 -2.2291
14270SOL    HW245393   0.928   5.400   2.845  0.0263  1.9371 -0.2233
14271SOL     OW45394   3.416   0.050   3.169 -0.1673  0.0139  0.3183
14271SOL    HW145395   3.382  -0.041   3.193 -0.0665  0.2973  1.5608
14271SOL    HW245396   3.488   0.042   3.100 -2.2051 -0.6466 -1.8081
14272SOL     OW45397   7.407   7.329   3.466  0.1376 -0.0186 -0.1216
14272SOL    HW145398   7.389   7.231   3.465  0.3392 -0.0453 -1.0778
14272SOL    HW245399   7.429   7.360   3.374  0.4162  0.8644  0.2391
14274SOL     OW45400   0.780   9.685   0.303 -0.0423 -0.9036 -0.1697
14274SOL    HW145401   0.844   9.609   0.317 -0.3866 -1.0881  0.3993
14274SOL    HW245402   0.764   9.731   0.390  0.1035 -0.2220 -0.4988
14275SOL     OW45403   1.433   1.902   1.171 -0.8081  0.0809 -0.0057
14275SOL    HW145404   1.349   1.874   1.218 -1.4807  1.0040 -0.6634
14275SOL    HW245405   1.486   1.962   1.230 -0.8710 -0.0666  0.2010
14276SOL     OW45406   3.294   3.963   1.910  0.3302 -0.0568  0.3984
14276SOL    HW145407   3.211   3.930   1.865  0.8023  0.6876 -1.0643
14276SOL    HW245408   3.359   3.993   1.840  0.7189  2.0098  1.6310
14277SOL     OW45409   3.101   1.260   1.103 -0.7345  0.1324 -0.2601
14277SOL    HW145410   3.100   1.168   1.141 -0.4584  0.1702 -0.1657
14277SOL    HW245411   3.007   1.291   1.090 -0.8366  0.3346  0.9011
14278SOL     OW45412   4.542   1.504   1.477 -0.3858 -0.4966  0.4760
14278SOL    HW145413   4.627   1.535   1.436 -0.8673  0.6579  0.3290
14278SOL    HW245414   4.558   1.419   1.526  0.4944 -1.1516 -0.9156
14279SOL     OW45415   7.492   1.301   1.960 -0.2103  0.2001 -0.9181
14279SOL    HW145416   7.399   1.335   1.946 -0.4441 -1.0177 -2.3988
14279SOL    HW245417   7.509   1.290   2.058 -1.4793  0.7828 -0.6231
14280SOL     OW45418   2.268   3.560   0.184  0.4878  0.1009 -0.0312
14280SOL    HW145419   2.326   3.628   0.230 -0.6173  1.0216  0.0119
14280SOL    HW245420   2.175   3.594   0.178 -0.0103 -1.2820 -0.3236
14281SOL     OW45421   1.048   4.283   2.372  0.4102  0.2977  0.3218
14281SOL    HW145422   1.139   4.289   2.412  0.8210  0.4526 -0.6143
14281SOL    HW245423   1.001   4.201   2.406  1.4746 -0.6039 -0.3530
14282SOL     OW45424   1.014   8.505   1.454 -0.1277  0.5747  0.0477
14282SOL    HW145425   1.080   8.550   1.515 -0.6569  0.8523  0.4205
14282SOL    HW245426   0.926   8.552   1.459 -0.3366  0.2483 -0.5047
14284SOL     OW45427   4.863   2.515   2.739  0.3851  0.6168 -0.4260
14284SOL    HW145428   4.922   2.436   2.720 -1.0950 -0.5816 -0.1632
14284SOL    HW245429   4.895   2.594   2.686  2.5115  0.1411  0.1047
14285SOL     OW45430   0.957   9.044   3.262  0.1075 -0.3238  0.2029
14285SOL    HW145431   1.005   9.131   3.266  2.3044 -1.4102 -1.3476
14285SOL    HW245432   0.892   9.044   3.186  0.9756 -0.4290 -0.5525
14286SOL     OW45433   8.365   6.538   1.503  0.3113  0.2119 -0.1624
14286SOL    HW145434   8.285   6.483   1.528 -0.3006  1.0681 -0.2195
14286SOL    HW245435   8.403   6.582   1.584  0.3724  0.2777 -0.2256
14287SOL     OW45436   0.187   1.888   2.171 -0.1497 -0.0597  0.5856
14287SOL    HW145437   0.191   1.936   2.258 -1.4115 -0.2078  0.7398
14287SOL    HW245438   0.279   1.876   2.134  0.1948  2.1460  0.7127
14288SOL     OW45439   8.665   1.725   2.926  0.1626  0.8398  0.2518
14288SOL    HW145440   8.748   1.766   2.888  1.2981 -0.1054  1.6544
14288SOL    HW245441   8.591   1.733   2.859  1.8748 -0.0645 -1.8393
14289SOL     OW45442   2.475   4.872   1.158  0.0025  0.1878  0.2583
14289SOL    HW145443   2.517   4.877   1.248 -1.9037 -0.4138  1.2206
14289SOL    HW245444   2.502   4.788   1.113  0.7759  0.3771  0.3693
14291SOL     OW45445   4.349   9.173   0.426  0.0630 -0.4174 -0.3315
14291SOL    HW145446   4.292   9.250   0.455  1.6401  1.0137 -0.9960
14291SOL    HW245447   4.315   9.089   0.469  0.9825  1.2841  4.0372
14292SOL     OW45448   9.536   8.107   2.890 -0.3336 -0.4760  0.0152
14292SOL    HW145449   9.439   8.085   2.879  0.1508 -2.3112 -0.7743
14292SOL    HW245450   9.558   8.187   2.834 -1.1500 -0.7211 -0.6749
14294SOL     OW45451   8.109   2.517   3.155 -0.2812  0.6397 -0.1026
14294SOL    HW145452   8.094   2.614   3.175  0.5546  0.6696  0.4204
14294SOL    HW245453   8.087   2.499   3.059 -1.0888  1.2015 -0.0302
14296SOL     OW45454   5.412   0.207   3.928 -0.5451  0.1520  0.4309
14296SOL    HW145455   5.322   0.243   3.953 -0.2031  0.2729  1.5274
14296SOL    HW245456   5.402   0.139   3.856 -1.3502  1.3680 -0.6209
14297SOL     OW45457   8.866   4.152   2.802 -0.5345 -0.5543  0.3437
14297SOL    HW145458   8.800   4.164   2.876 -1.4814 -2.5542 -0.1574
14297SOL    HW245459   8.822   4.168   2.714  0.0112 -0.4683  0.0821
14298SOL     OW45460   8.191   3.393   2.197  0.7032 -0.6125  0.0885
14298SOL    HW145461   8.260   3.448   2.243 -0.3344 -0.1856  1.1382
14298SOL    HW245462   8.114   3.451   2.169  0.5935 -1.1453 -0.7571
14299SOL     OW45463   9.313   2.601   1.064  0.5048 -0.2964 -0.0314
14299SOL    HW145464   9.343   2.549   1.144  1.9738  0.6414  0.0370
14299SOL    HW245465   9.376   2.584   0.988 -1.1739 -1.5961 -1.1751
14300SOL     OW45466   4.356   9.225   2.610  0.1506 -0.2713  0.6806
14300SOL    HW145467   4.308   9.308   2.581  0.7156 -0.5164 -1.0089
14300SOL    HW245468   4.346   9.213   2.708  2.2013  3.2138  1.3779
14302SOL     OW45469   0.859   2.215   4.178  0.0666  0.4863 -0.1799
14302SOL    HW145470   0.883   2.237   4.272 -2.4887 -1.0956  0.9096
14302SOL    HW245471   0.776   2.159   4.177  1.2258 -1.3182 -3.2747
14304SOL     OW45472   9.026   4.779   0.661  1.0138 -0.1263 -0.7540
14304SOL    HW145473   8.979   4.745   0.579  1.3115 -1.0832 -0.5262
14304SOL    HW245474   8.964   4.776   0.739 -0.1660  3.3120 -1.4528
14305SOL     OW45475   9.202   8.372   4.188 -0.1041  0.3674  0.0504
14305SOL    HW145476   9.139   8.342   4.260  0.2416 -1.6820 -0.4652
14305SOL    HW245477   9.154   8.434   4.125 -1.0421  0.3868  0.7719
14306SOL     OW45478   0.510   5.094   0.302  0.4562  0.0860  0.3371
14306SOL    HW145479   0.436   5.039   0.341  0.9961 -0.7249  0.2277
14306SOL    HW245480   0.595   5.041   0.303  1.4131  1.5933  1.9723
14307SOL     OW45481   4.171   8.242   1.212  0.1326 -0.2718  0.4632
14307SOL    HW145482   4.175   8.151   1.255 -1.4501 -0.5410  0.0862
14307SOL    HW245483   4.126   8.306   1.275  0.4889  0.0413  0.3970
14308SOL     OW45484   6.413   9.397   1.842  0.3685  0.4313 -0.0535
14308SOL    HW145485   6.337   9.387   1.906 -1.7207 -0.5580 -2.6385
14308SOL    HW245486   6.446   9.491   1.843 -1.9363  1.2575 -0.0648
14309SOL     OW45487   1.018   5.494   3.168 -0.8503 -0.0218 -0.4283
14309SOL    HW145488   1.111   5.502   3.205 -1.5015 -0.2777  1.3180
14309SOL    HW245489   1.023   5.473   3.071  0.9198  1.1487 -0.6199
14310SOL     OW45490   9.519   6.274   2.256  0.2431  0.2286  0.2594
14310SOL    HW145491   9.420   6.270   2.270  0.1583  1.7709  0.1306
14310SOL    HW245492   9.552   6.183   2.230 -1.2837 -0.0709 -0.6948
14311SOL     OW45493   1.542   6.838   3.677  0.1047 -0.1851 -0.0914
14311SOL    HW145494   1.558   6.849   3.775 -0.2795 -0.6548  0.0250
14311SOL    HW245495   1.611   6.776   3.639 -0.0345 -0.3765 -0.0303
14312SOL     OW45496   4.560   7.546   3.993 -0.0988 -0.0555 -0.5755
14312SOL    HW145497   4.629   7.490   3.947 -0.4887 -0.7609 -0.3128
14312SOL    HW245498   4.496   7.487   4.042 -0.5496  0.6200 -0.3352
14313SOL     OW45499   4.779   5.575   1.588 -0.4552  0.2006 -0.2461
14313SOL    HW145500   4.755   5.575   1.491 -0.2266  0.7098 -0.3066
14313SOL    HW245501   4.698   5.595   1.643 -1.0288 -2.1583 -0.2050
14315SOL     OW45502  -0.004   8.209   4.300  0.6310  0.6747  0.3604
14315SOL    HW145503   0.020   8.164   4.386  1.4583  0.8727  0.2441
14315SOL    HW245504   0.047   8.296   4.293 -0.9415  1.6263  0.5869
14316SOL     OW45505   3.337   3.899   1.503 -0.0668  0.1695 -0.0187
14316SOL    HW145506   3.383   3.969   1.557 -0.4731  0.7438 -0.4051
14316SOL    HW245507   3.391   3.816   1.503 -0.3817 -0.0618  1.8162
14317SOL     OW45508   3.230   5.808   1.196  0.2295  0.7156  0.1087
14317SOL    HW145509   3.178   5.768   1.121 -0.8378 -1.5514  2.0029
14317SOL    HW245510   3.326   5.780   1.189 -0.0200 -0.1292  0.0146
14318SOL     OW45511   7.254   1.941   3.296  0.5065 -0.1437  0.0681
14318SOL    HW145512   7.281   1.910   3.205 -1.3233  0.7565 -0.8201
14318SOL    HW245513   7.179   1.884   3.330  1.8234 -1.0838  1.4357
14319SOL     OW45514   2.178   5.038   2.346  0.0920  0.0853  0.4676
14319SOL    HW145515   2.273   5.053   2.372  0.2461 -2.1188  1.2717
14319SOL    HW245516   2.174   4.983   2.263 -0.4799 -0.5893  0.9348
14320SOL     OW45517   9.037   8.516   4.003 -0.6345 -0.0440 -0.2933
14320SOL    HW145518   9.074   8.461   3.928  2.2207  0.0989  0.9333
14320SOL    HW245519   8.956   8.471   4.041  0.7641 -2.6434 -0.2823
14321SOL     OW45520   5.579   1.749   2.198 -0.3546  0.0925 -0.2278
14321SOL    HW145521   5.487   1.778   2.223 -0.5983 -1.4368  0.7495
14321SOL    HW245522   5.581   1.649   2.190  0.8863  0.2164 -1.6331
14324SOL     OW45523   0.729   0.979   4.214 -0.7141  0.3729 -0.7722
14324SOL    HW145524   0.705   0.895   4.262 -0.9677  0.1032 -1.3697
14324SOL    HW245525   0.696   1.058   4.267 -0.1774  0.1161 -0.0464
14325SOL     OW45526   9.723   8.092   1.240 -0.1644 -0.1028  0.1143
14325SOL    HW145527   9.643   8.136   1.280  1.1711  1.9793  0.5507
14325SOL    HW245528   9.790   8.073   1.312  0.4486 -0.2874 -0.4975
14326SOL     OW45529   6.216   7.847   3.689 -0.1096  0.0750 -0.5785
14326SOL    HW145530   6.223   7.931   3.742 -0.7616 -0.2182 -0.0164
14326SOL    HW245531   6.176   7.867   3.600  0.1400  0.4301 -0.6106
14327SOL     OW45532   3.100   5.541   1.770 -0.7352  0.1260 -0.1945
14327SOL    HW145533   3.187   5.556   1.817  0.2692 -1.5000 -1.4733
14327SOL    HW245534   3.079   5.621   1.713 -0.3190  0.7337  0.4977
14328SOL     OW45535   0.325   5.754   1.167  0.0715 -0.3441 -0.4294
14328SOL    HW145536   0.361   5.846   1.183 -0.2283 -0.3546  0.2929
14328SOL    HW245537   0.255   5.758   1.096 -0.6734  0.1426  0.3300
14330SOL     OW45538   4.047   1.764   0.238 -0.1223  0.3761  0.7751
14330SOL    HW145539   3.981   1.729   0.172 -2.7192 -0.0861  3.4508
14330SOL    HW245540   4.055   1.863   0.227 -0.2879  0.2613 -0.4358
14331SOL     OW45541   3.726   1.943   3.966  0.2562 -0.0476 -0.5642
14331SOL    HW145542   3.815   1.975   3.933  0.0239  0.4898 -0.6724
14331SOL    HW245543   3.701   1.992   4.049  0.2550 -0.5024 -0.2932
14333SOL     OW45544   1.763   5.551   2.414  0.1600 -0.7844  0.4190
14333SOL    HW145545   1.774   5.624   2.482 -0.6819  0.0884 -0.3702
14333SOL    HW245546   1.678   5.564   2.364 -1.9867 -4.5030  2.8513
14334SOL     OW45547   8.910   7.460   3.542  0.5956 -0.7554 -0.5914
14334SOL    HW145548   8.968   7.492   3.467 -1.5659  0.1428 -1.9370
14334SOL    HW245549   8.834   7.523   3.554 -0.3830 -2.1681  0.8061
14335SOL     OW45550   3.516   3.655   0.078  0.3652 -0.3540 -0.6177
14335SOL    HW145551   3.614   3.665   0.063  0.2167  0.3846 -1.1551
14335SOL    HW245552   3.476   3.745   0.097 -0.5142 -0.3732 -2.2993
14336SOL     OW45553   2.581   0.937   2.073 -0.0676  0.0734  0.0625
14336SOL    HW145554   2.530   0.958   1.990  0.9271 -0.0012 -0.5675
14336SOL    HW245555   2.641   0.859   2.057  0.3453  0.2380  0.7625
14338SOL     OW45556   9.720   4.949   2.239  0.0543 -0.1352  0.0143
14338SOL    HW145557   9.819   4.955   2.251  0.2570  2.3588 -2.4929
14338SOL    HW245558   9.696   4.859   2.203  1.3342 -0.8723  0.9487
14339SOL     OW45559   4.484   3.168   4.416  0.4624 -0.4761 -0.0139
14339SOL    HW145560   4.527   3.249   4.376  0.7888 -0.3007  0.6812
14339SOL    HW245561   4.542   3.088   4.399  1.3181 -0.1548  1.3552
14340SOL     OW45562   9.172   5.274   3.615  0.3205  0.2620 -0.1595
14340SOL    HW145563   9.158   5.291   3.713 -0.0148 -0.7841 -0.0161
14340SOL    HW245564   9.251   5.214   3.603 -0.1483 -0.2924 -0.4769
14341SOL     OW45565   8.357   9.467   0.721 -0.3606 -0.4186 -0.1971
14341SOL    HW145566   8.349   9.567   0.728  1.1716 -0.4105  1.4528
14341SOL    HW245567   8.265   9.427   0.719 -0.9852  1.0023 -0.6969
14342SOL     OW45568   3.526   3.108   3.040 -0.8493 -0.1851  0.0374
14342SOL    HW145569   3.616   3.112   2.997 -0.4063  1.0935  1.0277
14342SOL    HW245570   3.482   3.021   3.019  0.6642 -0.8625 -0.3749
14344SOL     OW45571   8.038   2.931   1.039 -0.2239  0.9899 -0.3338
14344SOL    HW145572   8.008   2.836   1.044  0.9061  0.4393 -3.0912
14344SOL    HW245573   8.100   2.951   1.115 -1.2609 -0.1674  0.8329
14345SOL     OW45574   0.368   2.870   1.774  0.7682  0.0559  0.5356
14345SOL    HW145575   0.343   2.959   1.737 -0.2243 -1.1399 -1.7670
14345SOL    HW245576   0.451   2.837   1.728  0.7407 -0.5149  0.8878
14346SOL     OW45577   4.445   9.470   0.953  0.2664  0.0457  0.0751
14346SOL    HW145578   4.515   9.535   0.981  0.3276  0.0422 -0.0682
14346SOL    HW245579   4.400   9.502   0.869  1.9405 -1.2605 -1.3763
14348SOL     OW45580   1.478   1.365   3.298  0.1328  0.4776 -0.1133
14348SOL    HW145581   1.491   1.266   3.290 -2.0362  0.1688  0.0978
14348SOL    HW245582   1.469   1.404   3.206 -0.3195  0.3095 -0.1383
14349SOL     OW45583   9.366   5.397   4.085  0.4258  0.2467  0.4776
14349SOL    HW145584   9.357   5.464   4.012 -1.4075  0.3868  0.8068
14349SOL    HW245585   9.403   5.312   4.047 -0.4493  0.3398 -0.6144
14350SOL     OW45586   2.511   2.181   0.053 -0.2401  0.0884  0.1410
14350SOL    HW145587   2.529   2.099  -0.001  2.2744  1.4169 -1.1664
14350SOL    HW245588   2.487   2.155   0.146  0.5152 -2.1188 -0.2431
14351SOL     OW45589   2.755   2.066   2.443 -0.0062  0.1672 -0.1410
14351SOL    HW145590   2.755   2.155   2.489 -2.0198  0.5541 -0.8586
14351SOL    HW245591   2.707   2.073   2.356 -1.1676 -1.8731  0.2877
14352SOL     OW45592   5.527   0.173   3.488  0.0322 -0.5099  0.0966
14352SOL    HW145593   5.595   0.246   3.495 -0.0397 -0.2620 -1.6062
14352SOL    HW245594   5.555   0.109   3.417 -2.0426  0.1730 -1.3664
14353SOL     OW45595   9.129   6.085   1.152 -0.4587 -0.5413  0.2937
14353SOL    HW145596   9.228   6.089   1.139 -0.4815 -1.2204 -0.1317
14353SOL    HW245597   9.097   6.172   1.190  0.1318  0.1391 -0.7374
14354SOL     OW45598   4.440   9.821   0.045 -0.3954 -0.0940  0.2832
14354SOL    HW145599   4.508   9.752   0.070 -1.9794 -1.8507 -0.0658
14354SOL    HW245600   4.349   9.778   0.044 -1.6389  2.4181  1.7154
14355SOL     OW45601   9.946   9.245   1.772  0.3909  0.3620  0.1598
14355SOL    HW145602  10.019   9.306   1.742  0.4543 -0.3535 -1.1792
14355SOL    HW245603   9.986   9.163   1.813  0.3619 -0.2910 -1.0957
14356SOL     OW45604   8.033   9.422   1.400  0.2352 -0.1398 -0.3373
14356SOL    HW145605   8.124   9.439   1.363 -0.6459  1.0987 -1.9908
14356SOL    HW245606   8.013   9.489   1.472  0.1826  0.2834 -0.7511
14357SOL     OW45607   1.185   1.956   0.344 -0.7401 -0.7848  0.0509
14357SOL    HW145608   1.103   1.991   0.390  0.1765  0.0549  1.0478
14357SOL    HW245609   1.263   2.012   0.367  0.1326 -1.5762 -0.9270
14358SOL     OW45610   4.138   7.977   0.813 -0.9607  0.3669 -0.1012
14358SOL    HW145611   4.092   8.056   0.853 -0.8228 -0.1933  1.1648
14358SOL    HW245612   4.108   7.894   0.860 -1.0072 -0.3285 -1.3381
14359SOL     OW45613   0.481   6.805   2.788 -0.4437 -0.1801 -0.0312
14359SOL    HW145614   0.474   6.828   2.885  0.8186 -0.0935  0.0397
14359SOL    HW245615   0.403   6.748   2.762  0.0288 -1.5028  1.3998
14360SOL     OW45616   8.132   1.513   0.013  0.1079 -0.4238 -0.5273
14360SOL    HW145617   8.161   1.450  -0.059 -0.1099  0.0964 -1.0792
14360SOL    HW245618   8.210   1.567   0.044 -0.1474  0.7220 -1.7590
14361SOL     OW45619   0.396   2.656   3.389 -0.1306 -0.1911 -0.4454
14361SOL    HW145620   0.439   2.569   3.365 -0.2356 -0.5409  0.6046
14361SOL    HW245621   0.305   2.661   3.349 -1.0656 -1.5976  1.4736
14363SOL     OW45622   2.866   2.093   0.373 -0.0206  0.3783 -0.3631
14363SOL    HW145623   2.867   2.064   0.277 -1.2797 -1.0121  0.0320
14363SOL    HW245624   2.936   2.163   0.387  2.2546 -1.5969 -1.5933
14364SOL     OW45625   8.097   1.189   0.337 -0.7706  0.8253  0.1054
14364SOL    HW145626   8.050   1.261   0.286 -1.7407 -0.1498 -0.3825
14364SOL    HW245627   8.039   1.158   0.412 -0.8308 -0.2483 -0.3847
14365SOL     OW45628   9.509   0.545   2.198 -0.4384 -0.9646 -0.1436
14365SOL    HW145629   9.522   0.490   2.281 -2.1744 -2.2985 -0.7265
14365SOL    HW245630   9.509   0.484   2.118  1.7648  0.3505 -1.2169
14366SOL     OW45631   2.309   3.879   4.373  0.1995 -0.0117 -0.6115
14366SOL    HW145632   2.405   3.857   4.360  0.4676  1.7717 -1.7789
14366SOL    HW245633   2.291   3.973   4.343 -1.8494 -0.2387 -0.2016
14368SOL     OW45634   9.632   9.610   0.553 -0.7223  0.3051  0.5638
14368SOL    HW145635   9.663   9.664   0.474  0.5926 -1.1647  0.0475
14368SOL    HW245636   9.624   9.670   0.633  2.6023  0.9449  0.5007
14370SOL     OW45637   0.005   7.783   3.909 -0.0222 -0.3227 -0.0669
14370SOL    HW145638   0.058   7.739   3.982 -0.9378 -1.9542 -0.3718
14370SOL    HW245639   0.068   7.832   3.848  1.0255 -1.2208  0.2679
14371SOL     OW45640   2.621   0.736   3.529 -0.2248  0.3080 -0.4512
14371SOL    HW145641   2.558   0.684   3.471 -0.7990  0.0550  0.3794
14371SOL    HW245642   2.673   0.672   3.587 -0.3977  0.6084  0.0405
14372SOL     OW45643   9.420   3.481   0.325 -0.2849 -0.0971  0.0928
14372SOL    HW145644   9.404   3.502   0.229 -0.5376 -2.4148 -0.3885
14372SOL    HW245645   9.515   3.501   0.349 -0.4528  1.3255 -0.3895
14373SOL     OW45646   3.347   2.726   3.609 -0.0606 -0.6582  0.4803
14373SOL    HW145647   3.380   2.793   3.542 -0.2581  1.1963  2.2304
14373SOL    HW245648   3.248   2.718   3.603 -0.0728 -0.5349  0.5278
14374SOL     OW45649   7.923   5.638   0.517  0.3108  0.3802  0.0509
14374SOL    HW145650   7.907   5.707   0.588 -0.5739 -1.0564  1.2800
14374SOL    HW245651   8.017   5.644   0.485  1.5398 -0.6727  3.2708
14375SOL     OW45652   1.746   1.700   1.753 -0.5967  0.0410 -0.0458
14375SOL    HW145653   1.801   1.640   1.696 -0.7813 -0.0747 -0.1027
14375SOL    HW245654   1.701   1.646   1.824 -1.1832  0.0347 -0.4206
14376SOL     OW45655   1.272   2.192   3.944 -0.3682  0.0174  0.0360
14376SOL    HW145656   1.194   2.135   3.970 -0.7169  1.2776  1.8528
14376SOL    HW245657   1.347   2.134   3.913 -1.0878 -1.3599  0.8403
14377SOL     OW45658   2.787   9.503   3.150  0.1900  0.0357  0.2060
14377SOL    HW145659   2.866   9.541   3.102  0.0113  1.5412  1.0668
14377SOL    HW245660   2.814   9.473   3.241 -0.5405  2.0690  1.1188
14380SOL     OW45661   7.913   5.116   3.730 -0.2732 -0.6261 -0.0902
14380SOL    HW145662   7.872   5.087   3.816  0.1280  0.1061  0.3547
14380SOL    HW245663   7.944   5.036   3.679 -0.3138 -1.0503  0.5472
14383SOL     OW45664   0.339   4.921   3.703  0.4752 -0.3275 -0.1659
14383SOL    HW145665   0.425   4.968   3.682  0.7277 -0.7584 -0.0979
14383SOL    HW245666   0.286   4.908   3.619 -1.1372  3.0648  0.2407
14384SOL     OW45667   9.515   3.777   2.174 -0.0933  0.3008 -0.4547
14384SOL    HW145668   9.420   3.748   2.189 -0.3001  0.9953 -0.4005
14384SOL    HW245669   9.557   3.801   2.262  0.1558 -0.0697 -0.4714
  10.00000  10.00000   5.63389
