chitosan Film  in water:acetic acid 2%
10386
    1CHTO  H203    1   3.908   5.725   0.509 -0.8470 -0.2905 -0.3238
    1CHTO   O82    2   3.976   5.726   0.445 -0.2237  0.6194  0.3480
    1CHTO  C123    3   4.103   5.736   0.506 -0.2079  0.4624  0.3522
    1CHTO  H227    4   4.111   5.663   0.587  1.9873 -2.0565 -2.0013
    1CHTO   O77    5   4.206   5.710   0.405  0.0308  0.1567 -0.1034
    1CHTO  C118    6   4.329   5.680   0.461  0.2330 -0.1991 -0.3614
    1CHTO  H222    7   4.323   5.610   0.545  3.1083 -1.6521 -1.2977
    1CHTO  C125    8   4.402   5.606   0.350  0.4824 -0.2780 -0.8088
    1CHTO   O84    9   4.453   5.690   0.252 -0.1224  0.1102  0.5093
    1CHTO  H205   10   4.546   5.699   0.253 -0.1584  0.4646  0.5246
    1CHTO  C114   11   4.395   5.807   0.512 -0.0950 -0.2155 -0.4478
    1CHTO  H218   12   4.408   5.879   0.431  1.6149  2.3303  2.0025
    1CHTO  C116   13   4.295   5.878   0.613 -0.2212  0.0814  0.4255
    1CHTO  H220   14   4.302   5.840   0.717 -1.4338  3.2945  1.7464
    1CHTO   O79   15   4.330   6.015   0.628  0.0618 -1.3534 -0.3886
    1CHTO  H201   16   4.369   6.040   0.710 -1.3008 -0.8493  0.1343
    1CHTO  C120   17   4.142   5.879   0.559  0.0379  0.5858  0.2815
    1CHTO  H224   18   4.152   5.945   0.470 -0.0665  0.6852  0.3433
    1CHTO   N21   19   4.047   5.962   0.636  0.4444 -0.4378  0.9664
    1CHTO  H211   20   3.977   6.007   0.568  0.7107 -4.8263 -2.4597
    1CHTO  H212   21   3.995   5.901   0.709 -2.5755  2.1974  1.1651
    1CHTO   O75   22   4.512   5.777   0.592  0.6693 -0.3411  0.3166
    1CHTO  C112   23   4.647   5.782   0.493 -0.5510  0.4308 -0.0644
    1CHTO  H216   24   4.622   5.809   0.390  0.8403 -0.4398 -0.6538
    1CHTO   O73   25   4.711   5.654   0.502 -0.1313 -0.0161 -0.2337
    1CHTO  C113   26   4.808   5.645   0.397 -0.7794  0.4062  0.4908
    1CHTO  H217   27   4.759   5.675   0.302 -2.9867  1.2277  1.8525
    1CHTO  C124   28   4.847   5.498   0.397 -0.3613 -0.5543  0.3430
    1CHTO   O83   29   4.945   5.475   0.291 -0.5393 -0.4383  0.4671
    1CHTO  H204   30   4.939   5.388   0.257 -1.6180  0.2312 -1.1342
    1CHTO  C109   31   4.927   5.746   0.429 -1.1783  0.6540 -0.0332
    1CHTO  H213   32   4.973   5.716   0.524  1.2994  0.8083 -1.1668
    1CHTO  C110   33   4.868   5.890   0.447 -0.5910  0.2292 -0.3182
    1CHTO  H214   34   4.836   5.927   0.349  0.0896 -0.0383 -0.6374
    1CHTO   O78   35   4.966   5.985   0.484  0.2871 -0.3285  0.1430
    1CHTO  H200   36   5.052   5.974   0.447  0.7020  0.9104  0.7359
    1CHTO  C111   37   4.746   5.896   0.542 -0.6161 -0.1739 -0.7841
    1CHTO  H215   38   4.782   5.880   0.644 -1.2255  0.6764 -0.4322
    1CHTO   N19   39   4.667   6.026   0.536  0.0528  1.0840  0.3473
    1CHTO  H207   40   4.677   6.076   0.441 -1.7982 -1.1365 -1.0603
    1CHTO  H208   41   4.699   6.090   0.617  0.7687 -1.3566  2.0712
    1CHTO   O74   42   5.026   5.744   0.323 -0.4126 -0.8142 -0.4943
    1CHTO  C115   43   5.185   5.783   0.388 -0.0617  0.3777  0.2056
    1CHTO  H219   44   5.199   5.891   0.399 -0.1662  0.7339 -2.6925
    1CHTO   O76   45   5.207   5.730   0.526  0.1654 -0.2313  0.2214
    1CHTO  C122   46   5.218   5.593   0.533  0.6782  0.0146 -0.2811
    1CHTO  H226   47   5.127   5.545   0.496  1.2081 -1.5951  0.4154
    1CHTO  C126   48   5.237   5.543   0.675 -0.2856  0.2170  0.0863
    1CHTO   O85   49   5.122   5.576   0.762 -0.0791  0.1189 -0.4125
    1CHTO  H206   50   5.158   5.597   0.847  2.6900  0.8930 -1.7034
    1CHTO  C121   51   5.336   5.534   0.436 -0.2779  0.4146  0.2967
    1CHTO  H225   52   5.411   5.484   0.499  0.3807  1.8502  0.6739
    1CHTO   O81   53   5.270   5.431   0.359  0.2115 -0.1706  0.1148
    1CHTO  H202   54   5.225   5.365   0.408  0.4244 -0.6112 -0.2823
    1CHTO  C119   55   5.401   5.642   0.343 -0.3953  0.2048  0.2343
    1CHTO  H223   56   5.467   5.702   0.406  0.4047 -0.1033 -0.2970
    1CHTO  C117   57   5.287   5.735   0.285 -0.1060 -0.0454 -0.4490
    1CHTO  H221   58   5.219   5.693   0.211  0.2991 -2.0688  0.2999
    1CHTO   N20   59   5.364   5.847   0.216  0.5772  0.2705  0.8463
    1CHTO  H209   60   5.446   5.812   0.153  1.8193 -0.8303  3.0179
    1CHTO  H210   61   5.305   5.925   0.170 -0.6472 -1.5851 -0.8267
    1CHTO   O80   62   5.518   5.577   0.246 -0.1014 -0.2470  0.2570
    1CHTO  C103   63   5.639   5.513   0.303  0.3391  0.0592 -0.0290
    1CHTO  H190   64   5.657   5.550   0.404 -3.5356  1.5884  0.1581
    1CHTO  C101   65   5.644   5.351   0.293  0.3453  0.0879  0.2562
    1CHTO  H188   66   5.616   5.316   0.194  1.7706  0.1508 -0.1824
    1CHTO   O68   67   5.556   5.294   0.386 -0.0306 -0.0159 -0.1657
    1CHTO  H168   68   5.538   5.202   0.376 -0.6682  0.0036  0.7081
    1CHTO   C99   69   5.791   5.297   0.324 -0.2106 -0.2163  0.0385
    1CHTO  H186   70   5.812   5.320   0.431  2.0096 -4.2488  0.5616
    1CHTO   N17   71   5.802   5.150   0.311  0.1425  0.0406 -1.0843
    1CHTO  H174   72   5.811   5.140   0.204  0.5710 -1.0719 -0.9485
    1CHTO  H175   73   5.890   5.122   0.367 -0.4759  0.5555  0.1773
    1CHTO   C97   74   5.903   5.372   0.239  0.1161  0.3378  0.1640
    1CHTO  H184   75   5.896   5.343   0.134  0.9170 -0.3744  0.2939
    1CHTO   O64   76   5.880   5.516   0.258 -0.1695  0.4427  0.0205
    1CHTO  C104   77   5.755   5.561   0.209  0.2306  0.3152 -0.2108
    1CHTO  H191   78   5.743   5.522   0.109 -0.7422 -0.9171  0.3747
    1CHTO  C108   79   5.764   5.706   0.195 -0.3038  0.8357 -0.0701
    1CHTO   O71   80   5.855   5.746   0.088  0.1776 -0.2278  0.5691
    1CHTO  H171   81   5.892   5.829   0.110 -0.8263  0.4659 -0.2799
    1CHTO   O62   82   6.031   5.362   0.299 -0.3136 -0.5064  0.1892
    1CHTO   C91   83   6.146   5.390   0.215 -0.1428 -0.3467 -0.2458
    1CHTO  H178   84   6.120   5.442   0.123 -0.8601  1.7033  1.0890
    1CHTO   C92   85   6.202   5.249   0.169  0.2345 -0.5775 -0.3121
    1CHTO  H179   86   6.209   5.186   0.259  0.6546  1.8049  1.3695
    1CHTO   O66   87   6.103   5.198   0.079 -0.1072 -0.1500 -0.3985
    1CHTO  H166   88   6.025   5.174   0.124 -0.0964 -1.7248 -1.1630
    1CHTO   C93   89   6.333   5.256   0.093  0.0085  0.5332 -0.3101
    1CHTO  H180   90   6.317   5.322   0.007 -1.6146  1.7336  0.8698
    1CHTO   N16   91   6.375   5.121   0.049 -0.6218  0.7996  0.4051
    1CHTO  H172   92   6.467   5.128  -0.008 -2.3080 -1.0342 -2.7396
    1CHTO  H173   93   6.387   5.049   0.128 -0.3260 -0.7078 -0.9824
    1CHTO   C94   94   6.433   5.323   0.193 -0.7493 -0.3169  0.1985
    1CHTO  H181   95   6.431   5.277   0.292 -1.1774  0.5141  0.5855
    1CHTO   O61   96   6.393   5.462   0.210 -0.2908 -0.3204  0.3555
    1CHTO   C95   97   6.267   5.466   0.283 -0.1908  0.4528  0.3059
    1CHTO  H182   98   6.289   5.430   0.383  1.2999 -1.1955 -0.5708
    1CHTO  C106   99   6.215   5.613   0.299  0.2365 -0.1713  0.2038
    1CHTO   O69  100   6.310   5.688   0.376  0.5486 -0.7829  0.4979
    1CHTO  H169  101   6.281   5.777   0.388  2.6573 -0.0985  0.6602
    1CHTO   O63  102   6.596   5.337   0.134  0.3762 -0.0138 -0.0173
    1CHTO   C96  103   6.702   5.332   0.252  0.8386  0.3226 -0.3083
    1CHTO  H183  104   6.669   5.408   0.322 -1.3364  1.2471 -2.2670
    1CHTO   C98  105   6.843   5.382   0.214  0.0125  0.1900 -0.2174
    1CHTO  H185  106   6.833   5.475   0.156 -3.0229  0.0603  0.0208
    1CHTO   O67  107   6.918   5.416   0.334 -0.0927 -0.1053 -0.0112
    1CHTO  H167  108   6.994   5.467   0.312  0.0603 -0.7288 -0.9413
    1CHTO  C102  109   6.937   5.283   0.125  0.4687 -0.4036 -0.6640
    1CHTO  H189  110   7.038   5.324   0.133  0.5921 -0.8409  0.1233
    1CHTO   N18  111   6.910   5.274  -0.020 -0.2905 -1.1236  0.6811
    1CHTO  H176  112   6.856   5.186  -0.049 -1.1418 -0.1487 -0.7404
    1CHTO  H177  113   7.008   5.269  -0.066 -0.2135  0.6721  0.6064
    1CHTO  C105  114   6.928   5.148   0.197  0.3396  0.2976  0.3280
    1CHTO  H192  115   6.971   5.071   0.134 -1.4964 -0.9309  0.5470
    1CHTO   O65  116   6.797   5.099   0.238  0.0525 -0.2214 -0.0100
    1CHTO  C100  117   6.703   5.187   0.308 -1.1507  0.5167  0.6624
    1CHTO  H187  118   6.604   5.146   0.284  0.0327 -1.1832 -1.5063
    1CHTO  C107  119   6.730   5.182   0.457  0.0501 -0.7372 -1.0569
    1CHTO   O70  120   6.631   5.249   0.529 -0.1123  0.6449  0.7335
    1CHTO  H170  121   6.661   5.326   0.573 -0.5447  0.7026  0.9330
    1CHTO   O57  122   7.033   5.163   0.332  0.4584 -0.3013  0.4751
    1CHTO   C85  123   7.134   5.062   0.321 -0.2645 -0.2138  0.1063
    1CHTO  H157  124   7.181   5.063   0.221 -2.4451 -0.7223 -0.9582
    1CHTO   C83  125   7.074   4.917   0.333  0.4075  0.7667 -0.5723
    1CHTO  H155  126   7.012   4.915   0.243  1.1667 -0.9685 -1.0823
    1CHTO   O56  127   6.990   4.888   0.444  0.0701  0.3197 -0.0998
    1CHTO  H135  128   6.906   4.857   0.415  0.1493  0.0715 -0.0712
    1CHTO   C81  129   7.192   4.815   0.312 -0.0400  0.0812 -0.2288
    1CHTO  H153  130   7.243   4.850   0.222  0.1456 -1.6849 -0.8299
    1CHTO   N14  131   7.162   4.674   0.275 -0.1193 -0.0674 -0.4008
    1CHTO  H141  132   7.248   4.621   0.239  3.7073  4.6538  1.2057
    1CHTO  H142  133   7.107   4.621   0.351  0.4223 -0.8308 -0.5347
    1CHTO   C79  134   7.292   4.827   0.428 -0.1480  0.1294  0.0809
    1CHTO  H151  135   7.377   4.761   0.408  0.7169  0.8607  1.2862
    1CHTO   O52  136   7.344   4.969   0.437 -0.0683  0.0577 -0.0532
    1CHTO   C86  137   7.236   5.073   0.437 -1.3194 -0.8412 -0.0152
    1CHTO  H158  138   7.197   5.051   0.538  2.7165  1.3457  2.1689
    1CHTO   C90  139   7.297   5.217   0.449  0.6875 -0.2041  0.2508
    1CHTO   O60  140   7.370   5.226   0.573 -0.1064 -0.2391  0.3125
    1CHTO  H138  141   7.377   5.312   0.612 -0.7448  0.4292 -1.0159
    1CHTO   O50  142   7.239   4.788   0.555  0.4147  0.1770  0.2415
    1CHTO   C73  143   7.290   4.706   0.662 -0.2661 -0.1356 -0.1518
    1CHTO  H145  144   7.339   4.614   0.626 -1.5395 -1.4244  1.3281
    1CHTO   C74  145   7.174   4.647   0.743 -0.4692 -0.2566  0.6603
    1CHTO  H146  146   7.107   4.601   0.668 -2.1316 -1.0491  2.5820
    1CHTO   O54  147   7.234   4.553   0.838  0.1888  0.6417  0.0988
    1CHTO  H133  148   7.238   4.467   0.800 -0.6345  0.8504 -0.4808
    1CHTO   C75  149   7.100   4.773   0.812  0.0441 -0.0884  0.2597
    1CHTO  H147  150   7.075   4.847   0.735  3.2959  2.4916  1.5635
    1CHTO   N13  151   6.980   4.741   0.892 -0.4837  0.3115  0.3803
    1CHTO  H139  152   6.888   4.790   0.862 -0.6625 -0.0415  0.3522
    1CHTO  H140  153   6.961   4.636   0.906  1.0326 -0.1308 -0.7919
    1CHTO   C76  154   7.195   4.861   0.904 -0.0605 -0.1673  0.0657
    1CHTO  H148  155   7.214   4.792   0.986 -2.0061  0.7142  1.2815
    1CHTO   O49  156   7.318   4.896   0.841 -0.4597  0.8176  0.3351
    1CHTO   C77  157   7.384   4.790   0.764  0.3393 -0.1862 -0.0157
    1CHTO  H149  158   7.431   4.716   0.830 -1.8077  0.3925  2.2167
    1CHTO   C88  159   7.503   4.855   0.695 -0.2676  0.2481 -0.2322
    1CHTO   O58  160   7.596   4.898   0.783  0.7936  0.4464  0.2669
    1CHTO  H136  161   7.559   4.935   0.861 -1.5231  0.1556 -0.6701
    1CHTO   O51  162   7.111   5.006   0.952  0.1854  0.0272 -0.4172
    1CHTO   C78  163   7.130   5.129   0.869 -0.4794 -0.0148  0.1002
    1CHTO  H150  164   7.178   5.102   0.772  1.9475  1.2840  0.8819
    1CHTO   C80  165   7.229   5.219   0.949  0.5069 -0.0844  0.4525
    1CHTO  H152  166   7.183   5.231   1.049 -1.8482 -0.5344 -0.5578
    1CHTO   O55  167   7.356   5.155   0.966  0.1736  0.3235 -0.0086
    1CHTO  H134  168   7.349   5.078   1.020 -0.2451  1.4068  1.5089
    1CHTO   C84  169   7.246   5.366   0.886  0.8228 -0.0051 -0.6113
    1CHTO  H156  170   7.298   5.361   0.790  0.8063  1.5002 -0.7130
    1CHTO   N15  171   7.332   5.463   0.963 -0.2791  0.0706  0.4715
    1CHTO  H143  172   7.282   5.498   1.051 -0.2865 -2.3961  1.4948
    1CHTO  H144  173   7.418   5.407   0.994  1.0283  1.1694 -1.1421
    1CHTO   C87  174   7.105   5.420   0.862 -0.2990 -0.5332  0.4201
    1CHTO  H159  175   7.057   5.427   0.959 -0.8703 -0.8945  0.1652
    1CHTO   O53  176   7.020   5.315   0.770 -0.8883  0.0747 -0.8163
    1CHTO   C82  177   6.994   5.201   0.852 -0.5501  0.1747  0.5695
    1CHTO  H154  178   6.968   5.228   0.955 -1.0870  1.3176  0.1311
    1CHTO   C89  179   6.880   5.103   0.800 -0.4078 -0.0581  0.1351
    1CHTO   O59  180   6.749   5.162   0.821 -0.0920  0.0269 -0.7634
    1CHTO  H137  181   6.729   5.175   0.912 -2.7005 -0.6754 -1.2003
    1CHTO   O45  182   7.115   5.552   0.790 -0.8091 -0.1417  0.2123
    1CHTO   C67  183   7.009   5.647   0.792  1.0486  0.8975  0.2269
    1CHTO  H124  184   7.050   5.746   0.772 -1.0524  2.0985  1.5629
    1CHTO   C65  185   6.909   5.612   0.681 -0.2947 -0.1328 -0.2946
    1CHTO  H122  186   6.919   5.505   0.663  1.4291  0.1838 -1.4058
    1CHTO   O44  187   6.961   5.686   0.568  0.6263  0.2867  0.3579
    1CHTO  H102  188   6.901   5.754   0.544  1.7515  1.7906  1.6862
    1CHTO   C63  189   6.754   5.628   0.719  0.1269 -0.4113 -0.2481
    1CHTO  H120  190   6.722   5.539   0.774  0.6399 -1.1897 -1.1838
    1CHTO   N11  191   6.660   5.628   0.605  0.4399 -0.1608  0.1621
    1CHTO  H108  192   6.667   5.725   0.561  1.2284 -0.0578  0.4975
    1CHTO  H109  193   6.559   5.605   0.631  0.6485 -0.3339  0.8523
    1CHTO   C61  194   6.728   5.753   0.808 -0.4914  0.8170 -0.4092
    1CHTO  H118  195   6.627   5.737   0.849  1.0109 -1.1457  2.7833
    1CHTO   O40  196   6.816   5.750   0.927  0.1598 -0.7406 -0.0097
    1CHTO   C68  197   6.931   5.659   0.934  0.4665 -0.5510 -0.2747
    1CHTO  H125  198   6.900   5.561   0.976  1.8863  0.1300  2.4583
    1CHTO   C72  199   7.026   5.721   1.035 -0.0248  0.2704 -0.1842
    1CHTO   O48  200   6.969   5.790   1.150 -0.6280 -0.0902  0.3484
    1CHTO  H105  201   6.989   5.751   1.234 -4.8761 -1.2414  0.9836
    1CHTO   O38  202   6.758   5.883   0.737 -0.3138 -0.1298 -0.4014
    1CHTO   C55  203   6.712   6.004   0.800 -0.0146  0.1374 -0.0711
    1CHTO  H112  204   6.708   5.987   0.909  0.4200  1.4250  0.1568
    1CHTO   C56  205   6.570   6.036   0.735  0.5120 -0.2909  0.3615
    1CHTO  H113  206   6.583   6.038   0.626  1.4844 -0.7656  0.4643
    1CHTO   O42  207   6.473   5.933   0.765 -0.1189 -0.2152 -0.6579
    1CHTO  H100  208   6.394   5.950   0.718  0.0784  1.3675 -0.4530
    1CHTO   C57  209   6.528   6.189   0.777  0.8028  0.5309 -0.3418
    1CHTO  H114  210   6.503   6.199   0.883 -3.7743  0.7938 -1.3375
    1CHTO   N10  211   6.410   6.230   0.698  0.5999 -0.3178 -0.2355
    1CHTO  H106  212   6.413   6.196   0.596 -2.6928 -2.6410  0.3694
    1CHTO  H107  213   6.319   6.199   0.746  0.1736  1.1132 -0.0937
    1CHTO   C58  214   6.648   6.286   0.741 -0.2337  0.0748 -0.9377
    1CHTO  H115  215   6.674   6.284   0.633  0.3318  0.6788 -0.8193
    1CHTO   O37  216   6.760   6.246   0.821  0.2442 -0.2011  0.1247
    1CHTO   C59  217   6.817   6.124   0.783 -0.1032  0.2827  0.0259
    1CHTO  H116  218   6.853   6.132   0.681 -0.0223  2.2390  0.1866
    1CHTO   C70  219   6.948   6.104   0.867  0.2632  0.7677  0.1018
    1CHTO   O46  220   6.932   6.135   1.008  0.0882 -0.4107 -0.1077
    1CHTO  H103  221   6.936   6.228   1.020 -0.2301 -0.4307  0.1461
    1CHTO   O39  222   6.627   6.438   0.792  1.2044  0.5707 -0.2645
    1CHTO   C60  223   6.706   6.538   0.726  0.1441 -0.0829 -0.7691
    1CHTO  H117  224   6.799   6.493   0.692  1.1035  1.5195 -0.3141
    1CHTO   C62  225   6.637   6.596   0.598  0.1392 -0.2236 -0.7506
    1CHTO  H119  226   6.634   6.511   0.526 -1.9440 -2.2024  1.5640
    1CHTO   O43  227   6.499   6.632   0.623  0.4188  0.3794 -0.2101
    1CHTO  H101  228   6.439   6.565   0.599 -1.0830  0.7809  2.2487
    1CHTO   C66  229   6.737   6.704   0.532 -0.3740  0.2256 -0.1356
    1CHTO  H123  230   6.834   6.657   0.516 -0.4642  0.4261 -1.2815
    1CHTO   N12  231   6.702   6.753   0.400 -0.7188  0.0288  0.8164
    1CHTO  H110  232   6.781   6.740   0.328 -0.6191 -1.4667  1.1791
    1CHTO  H111  233   6.604   6.725   0.365 -0.7310  0.2120  0.7059
    1CHTO   C69  234   6.755   6.819   0.640  0.0176  0.5890  0.2710
    1CHTO  H126  235   6.653   6.854   0.664 -0.5695 -1.4951  0.8321
    1CHTO   O41  236   6.835   6.754   0.765  0.1670  0.3919  0.0615
    1CHTO   C64  237   6.746   6.646   0.825 -0.0278  0.1677  0.3848
    1CHTO  H121  238   6.653   6.696   0.860 -1.1468 -1.8114  0.3454
    1CHTO   C71  239   6.829   6.590   0.940 -0.1366 -0.2955  0.2037
    1CHTO   O47  240   6.953   6.532   0.901 -0.4726  0.1567 -0.1398
    1CHTO  H104  241   6.992   6.476   0.965 -2.6771 -0.3751  0.7912
    1CHTO   O34  242   6.847   6.970   0.579  0.3390 -0.2545 -0.2101
    1CHTO   C49  243   6.943   7.073   0.649  0.2285  0.0280 -0.5315
    1CHTO   H91  244   6.934   7.163   0.587  2.3881  1.3926  1.0703
    1CHTO   C47  245   7.090   7.019   0.644  0.3376  0.1228 -0.2057
    1CHTO   H89  246   7.130   7.046   0.544  1.0520  0.6765  0.2191
    1CHTO   O33  247   7.099   6.880   0.644  0.0444  0.1217 -0.1711
    1CHTO   H70  248   7.182   6.859   0.604 -0.2891  0.9153 -1.3021
    1CHTO   C45  249   7.174   7.074   0.766 -0.8932 -0.2143  0.0724
    1CHTO   H87  250   7.150   7.004   0.847 -1.6161  0.8929  0.8370
    1CHTO    N8  251   7.322   7.069   0.742 -0.0101 -0.2103  0.0823
    1CHTO   H75  252   7.366   6.973   0.767 -0.2384 -0.8963 -2.0051
    1CHTO   H76  253   7.342   7.084   0.637  1.5054 -1.6395  0.1368
    1CHTO   C43  254   7.130   7.215   0.819  0.0252  0.5072  0.2216
    1CHTO   H85  255   7.190   7.253   0.901 -0.3766 -2.4030  1.9580
    1CHTO   O29  256   6.993   7.203   0.855 -0.1104  0.2691 -0.0930
    1CHTO   C50  257   6.908   7.107   0.793 -0.7155 -0.2264 -0.2085
    1CHTO   H92  258   6.912   7.016   0.855  1.6279  0.5769  0.8807
    1CHTO   C54  259   6.761   7.155   0.798  0.2279  0.6988 -0.5804
    1CHTO   O36  260   6.713   7.164   0.933 -0.3250 -0.0545  0.2379
    1CHTO   H72  261   6.625   7.195   0.923 -0.0853  0.0676 -1.7517
    1CHTO   O27  262   7.139   7.315   0.722  0.2396  0.1019 -0.0877
    1CHTO   C37  263   7.144   7.451   0.692 -0.0857  0.1577  0.3328
    1CHTO   H79  264   7.090   7.511   0.768 -2.4789 -1.7589  0.2021
    1CHTO   C38  265   7.293   7.512   0.696  0.1534  0.4905  0.5907
    1CHTO   H80  266   7.361   7.436   0.655 -0.8814 -0.4511  0.5900
    1CHTO   O31  267   7.334   7.533   0.835 -0.3765  0.2472  0.0428
    1CHTO   H68  268   7.411   7.485   0.856 -0.0621 -0.4582 -2.5449
    1CHTO   C39  269   7.317   7.645   0.618 -0.4220 -0.5770 -0.4936
    1CHTO   H81  270   7.271   7.729   0.669 -0.1279 -0.9698  0.4234
    1CHTO    N7  271   7.465   7.680   0.603 -0.1803  0.0458  0.0396
    1CHTO   H73  272   7.506   7.639   0.512  0.9158  1.4501 -0.1241
    1CHTO   H74  273   7.478   7.787   0.614 -0.3203  0.2223 -1.3307
    1CHTO   C40  274   7.248   7.643   0.475 -0.8300 -0.1268 -0.4614
    1CHTO   H82  275   7.291   7.568   0.410 -0.7812 -2.0053  1.6817
    1CHTO   O26  276   7.105   7.618   0.495  0.0855 -0.1729 -0.4192
    1CHTO   C41  277   7.077   7.482   0.548  1.1161 -0.0175 -0.3549
    1CHTO   H83  278   7.120   7.414   0.473  2.1037 -0.6391  0.7679
    1CHTO   C52  279   6.922   7.462   0.557  0.8629 -0.0432 -0.7995
    1CHTO   O35  280   6.851   7.582   0.617  0.2757  0.3665 -0.7021
    1CHTO   H71  281   6.877   7.652   0.560 -1.3581 -0.2844 -2.3281
    1CHTO   O28  282   7.234   7.771   0.410  0.2649 -0.1122 -0.1057
    1CHTO   C42  283   7.205   7.773   0.262 -0.3845  0.0979 -0.5114
    1CHTO   H84  284   7.168   7.674   0.237 -1.2507 -0.0897  1.4506
    1CHTO   C44  285   7.325   7.806   0.165  0.5075 -0.5029 -0.4979
    1CHTO   H86  286   7.370   7.899   0.199  1.6199 -0.7684 -1.2126
    1CHTO   O32  287   7.429   7.716   0.203  0.0313 -0.1288 -0.5460
    1CHTO   H69  288   7.507   7.740   0.157  0.2004 -0.2641 -0.3284
    1CHTO   C48  289   7.293   7.800   0.013 -0.0009 -0.5405  0.3729
    1CHTO   H90  290   7.287   7.695  -0.015  0.0107 -0.4450  0.0126
    1CHTO    N9  291   7.405   7.846  -0.076  0.7751 -0.2857  0.0757
    1CHTO   H77  292   7.400   7.950  -0.105  0.2656  0.0147  1.2317
    1CHTO   H78  293   7.401   7.788  -0.167  2.7324 -1.2573  0.5787
    1CHTO   C51  294   7.159   7.876  -0.025  0.2808  0.5672 -0.1178
    1CHTO   H93  295   7.182   7.983  -0.022  0.5946  0.4638  1.2518
    1CHTO   O30  296   7.052   7.843   0.063 -0.3829 -0.0736  0.3550
    1CHTO   C46  297   7.094   7.870   0.216  0.2680  0.5394 -0.2680
    1CHTO   H88  298   7.128   7.973   0.230  1.6933  0.1411 -0.7285
    1CHTO   C53  299   6.979   7.860   0.313  0.0117  0.0652 -0.2894
    1CHTO   O72  300   6.905   7.740   0.310 -0.1055  1.0521  0.3160
    1CHTO  H199  301   6.968   7.671   0.311 -0.6976  0.5063  0.4003
    1CHTO   O22  302   7.121   7.845  -0.157  0.0782  0.3815  0.3038
    1CHTO   C31  303   7.007   7.893  -0.233  0.2645 -0.2782  1.4967
    1CHTO   H59  304   6.940   7.941  -0.159 -1.6439 -1.1551  0.3922
    1CHTO   C29  305   7.044   7.994  -0.347  0.3187  0.6699 -0.3224
    1CHTO   H57  306   7.123   7.945  -0.405 -0.3875  0.2451 -0.9305
    1CHTO   O21  307   7.099   8.108  -0.281 -0.4390 -0.1264 -0.2824
    1CHTO   H37  308   7.124   8.086  -0.194  2.1624  1.5764 -0.5541
    1CHTO   C27  309   6.918   8.026  -0.443 -0.1362  0.4091 -1.0382
    1CHTO   H55  310   6.848   8.080  -0.378 -2.3994 -1.7663 -1.5681
    1CHTO    N5  311   6.947   8.115  -0.555 -0.1997 -0.0775 -0.2123
    1CHTO   H43  312   6.991   8.072  -0.644  1.0067 -0.0234  0.3452
    1CHTO   H44  313   6.868   8.185  -0.577  0.6030  0.9062 -0.0391
    1CHTO   C25  314   6.852   7.888  -0.498 -0.2690 -0.0467 -0.6393
    1CHTO   H53  315   6.920   7.834  -0.566  1.4820  0.3359  0.7856
    1CHTO   O17  316   6.815   7.811  -0.379  0.5893  0.2639  0.2197
    1CHTO   C32  317   6.923   7.769  -0.288  0.4466  0.7890 -0.0948
    1CHTO   H60  318   6.984   7.704  -0.351 -2.1944 -1.8669 -0.0203
    1CHTO   C36  319   6.875   7.672  -0.177  0.2090 -0.5346  0.1623
    1CHTO   O25  320   6.977   7.594  -0.103  0.2541 -0.2441  0.0795
    1CHTO   H40  321   7.003   7.508  -0.131  0.5130  0.0122 -0.4780
    1CHTO   O15  322   6.707   7.923  -0.585  0.1951  0.5239 -0.1198
    1CHTO   C19  323   6.620   7.818  -0.643 -0.2602  0.1003 -0.3652
    1CHTO   H47  324   6.541   7.878  -0.690 -1.3248 -0.2963  0.8975
    1CHTO   C20  325   6.693   7.755  -0.761 -0.0485  0.4864  0.5837
    1CHTO   H48  326   6.791   7.718  -0.728 -0.5952 -0.6092  1.0033
    1CHTO   O19  327   6.710   7.858  -0.857  0.1881  0.0188  0.4613
    1CHTO   H35  328   6.648   7.928  -0.851  0.6696  0.5687 -0.8285
    1CHTO   C21  329   6.620   7.630  -0.825  0.0131  0.0519  0.7311
    1CHTO   H49  330   6.530   7.667  -0.875  1.1359  0.7208 -0.8263
    1CHTO    N4  331   6.694   7.550  -0.923 -0.1096  0.7401 -0.4596
    1CHTO   H41  332   6.674   7.591  -1.021 -1.6162 -0.3117 -0.6223
    1CHTO   H42  333   6.800   7.561  -0.904 -0.5914 -0.4065  3.3260
    1CHTO   C22  334   6.562   7.548  -0.711 -0.2901  0.6032  0.7363
    1CHTO   H50  335   6.645   7.500  -0.659  0.9547 -0.5996 -2.2516
    1CHTO   O14  336   6.484   7.627  -0.619 -0.4440  0.2007  0.2326
    1CHTO   C23  337   6.565   7.718  -0.540 -0.0037 -0.5421  0.2383
    1CHTO   H51  338   6.643   7.658  -0.491  0.5978 -0.9029 -1.1268
    1CHTO   C34  339   6.473   7.790  -0.437  0.2683  0.1978 -0.2782
    1CHTO   O23  340   6.410   7.701  -0.347  0.0684 -0.6650  0.5082
    1CHTO   H38  341   6.383   7.625  -0.395 -1.2393  0.7492 -1.1093
    1CHTO   O16  342   6.467   7.450  -0.762  0.0025 -0.1900 -1.0516
    1CHTO   C24  343   6.483   7.284  -0.737 -0.2376 -0.5047  0.5966
    1CHTO   H52  344   6.587   7.257  -0.752 -0.3938 -1.1536  0.6972
    1CHTO   C26  345   6.387   7.219  -0.838 -0.3161  0.3586 -0.2651
    1CHTO   H54  346   6.291   7.271  -0.819  0.6605  1.7687  0.8694
    1CHTO   O20  347   6.445   7.233  -0.970  0.2476  0.0916  0.5652
    1CHTO   H36  348   6.400   7.180  -1.033  0.5479  1.2491 -0.6374
    1CHTO   C30  349   6.367   7.064  -0.809  0.4652  0.5814 -0.2454
    1CHTO   H58  350   6.461   7.007  -0.817  0.2230  0.0596  0.5635
    1CHTO    N6  351   6.290   6.999  -0.913  0.2505  0.2230  0.5562
    1CHTO   H45  352   6.273   6.895  -0.887  1.5252 -0.4791 -1.2710
    1CHTO   H46  353   6.192   7.045  -0.919  0.3542  0.5745  1.6378
    1CHTO   C33  354   6.321   7.048  -0.659  0.2951  0.3626  0.5304
    1CHTO   H61  355   6.232   7.111  -0.646 -0.7476 -0.6398 -1.6135
    1CHTO   O18  356   6.430   7.100  -0.580 -0.0276  0.0638 -0.1547
    1CHTO   C28  357   6.454   7.241  -0.591 -0.0134 -0.6965  0.6648
    1CHTO   H56  358   6.372   7.301  -0.553 -0.0661  0.2109 -0.8767
    1CHTO   C35  359   6.574   7.274  -0.500  0.9126 -0.0890  0.0118
    1CHTO   O24  360   6.564   7.290  -0.361  0.6767  0.1864 -0.2817
    1CHTO   H39  361   6.639   7.336  -0.328  0.8064 -0.9340  1.0171
    1CHTO    O9  362   6.289   6.914  -0.622 -0.2162 -0.1003  0.1493
    1CHTO   C13  363   6.243   6.901  -0.475 -0.2298 -1.0362  0.7557
    1CHTO   H26  364   6.190   6.995  -0.447  0.6091 -0.6885  1.1889
    1CHTO   C11  365   6.379   6.880  -0.381 -0.7051  0.7124 -0.3932
    1CHTO   H24  366   6.423   6.978  -0.358  0.1018 -0.0740  1.4622
    1CHTO    O8  367   6.473   6.784  -0.418 -0.1785 -0.2177 -0.3529
    1CHTO    H3  368   6.500   6.799  -0.507 -2.7393  0.0887 -1.1345
    1CHTO    C9  369   6.323   6.832  -0.245  0.1407 -0.3482  0.4097
    1CHTO   H22  370   6.243   6.904  -0.220  1.5718  1.9456 -1.4129
    1CHTO    N2  371   6.412   6.826  -0.128 -0.1633  0.4197 -0.5686
    1CHTO   H10  372   6.494   6.897  -0.131 -0.1088  0.2577 -3.7623
    1CHTO   H11  373   6.441   6.723  -0.112  1.3375  1.1107  1.4472
    1CHTO    C7  374   6.248   6.692  -0.267  0.6939  0.4822  0.2467
    1CHTO   H20  375   6.216   6.662  -0.165  0.5544  2.8923  0.9417
    1CHTO    O4  376   6.125   6.717  -0.340 -0.0171  0.1355  0.4047
    1CHTO   C14  377   6.138   6.782  -0.465  0.3654 -0.1211  0.4022
    1CHTO   H27  378   6.036   6.818  -0.489 -0.2455 -1.0446  1.5542
    1CHTO   C18  379   6.164   6.678  -0.563  0.2462  1.0772  0.1141
    1CHTO   O13  380   6.060   6.575  -0.563 -0.0696 -0.4320  0.1955
    1CHTO    H7  381   5.978   6.612  -0.589  2.2618  2.3254 -3.6921
    1CHTO    O2  382   6.328   6.556  -0.348 -0.5639 -0.4626 -0.5636
    1CHTO    C1  383   6.339   6.440  -0.263  0.3539  0.5521 -0.4717
    1CHTO   H14  384   6.285   6.463  -0.168 -1.2956  1.3227 -1.5612
    1CHTO    C2  385   6.493   6.409  -0.227 -0.0124 -0.1660 -0.1227
    1CHTO   H15  386   6.550   6.405  -0.321  3.5176  1.3811  1.8728
    1CHTO    O6  387   6.550   6.525  -0.162 -0.1229 -0.3974 -0.1489
    1CHTO    H1  388   6.528   6.604  -0.207  0.2312  0.6024  1.3909
    1CHTO    C3  389   6.492   6.262  -0.143 -0.0887  0.4350 -0.5461
    1CHTO   H16  390   6.436   6.279  -0.050 -1.3642  1.5938 -1.5141
    1CHTO    N1  391   6.640   6.223  -0.109 -0.1843  0.2077  0.2935
    1CHTO    H8  392   6.671   6.283  -0.024  1.2206  1.6374 -1.1793
    1CHTO    H9  393   6.637   6.117  -0.093  1.3672  0.0444 -0.4107
    1CHTO    C4  394   6.406   6.147  -0.212  0.5714 -0.7269  0.3293
    1CHTO   H17  395   6.447   6.118  -0.309 -0.5232  0.7113 -0.5916
    1CHTO    O1  396   6.276   6.203  -0.224 -0.6575 -0.1392  0.0186
    1CHTO    C5  397   6.268   6.316  -0.317 -0.1753 -0.4046 -0.2251
    1CHTO   H18  398   6.312   6.287  -0.413 -1.6024 -3.7056  0.0737
    1CHTO   C16  399   6.118   6.340  -0.340  0.4678  0.2625 -0.3851
    1CHTO   O11  400   6.089   6.229  -0.431  0.1760 -0.0430  0.1944
    1CHTO    H5  401   6.117   6.257  -0.516  1.3208 -0.7248  0.3308
    1CHTO    O3  402   6.382   6.031  -0.134 -0.4382  0.1893 -0.3182
    1CHTO    C6  403   6.324   5.910  -0.193 -0.3053  0.2636 -0.1954
    1CHTO   H19  404   6.272   5.929  -0.287  0.6283 -0.0095 -0.7850
    1CHTO    C8  405   6.443   5.816  -0.233 -0.2273  0.3186  0.4042
    1CHTO   H21  406   6.508   5.807  -0.146  1.1428 -1.0260 -0.7322
    1CHTO    O7  407   6.521   5.867  -0.347  0.1702  0.1313  0.3815
    1CHTO    H2  408   6.611   5.887  -0.329  0.0815 -0.1963  1.1803
    1CHTO   C12  409   6.382   5.670  -0.272  0.3950 -0.2952  0.5932
    1CHTO   H25  410   6.327   5.677  -0.368 -1.7238  1.8765  1.9004
    1CHTO    N3  411   6.494   5.573  -0.315  0.3822 -0.1618 -0.0215
    1CHTO   H12  412   6.563   5.556  -0.234  1.5545  3.1370 -0.2583
    1CHTO   H13  413   6.544   5.599  -0.407  0.2894  0.8280  0.2014
    1CHTO   C15  414   6.286   5.622  -0.162 -0.6108  0.3476 -0.0162
    1CHTO   H28  415   6.340   5.599  -0.071  1.2614  1.0805 -0.9289
    1CHTO   O10  416   6.210   5.481  -0.186 -0.2046 -0.2391 -0.1568
    1CHTO    H4  417   6.121   5.480  -0.155 -0.8056 -1.3507 -1.8614
    1CHTO    O5  418   6.182   5.719  -0.146  0.6955  0.6477 -0.4449
    1CHTO   C10  419   6.231   5.845  -0.095  0.1881 -0.5702 -0.5400
    1CHTO   H23  420   6.295   5.823  -0.010 -0.4833 -0.2085  0.0603
    1CHTO   C17  421   6.118   5.934  -0.047  0.6888  0.0704  0.0878
    1CHTO   O12  422   6.010   5.938  -0.140 -0.0603 -0.4047  0.0544
    1CHTO    H6  423   5.949   6.007  -0.122 -0.0021  0.0196 -1.3136
    2CHTO  H203  424   4.246   3.212   1.231  0.3871  0.2990 -0.5808
    2CHTO   O82  425   4.286   3.268   1.167  0.0847  0.7153 -0.4131
    2CHTO  C123  426   4.254   3.404   1.194  0.4917  0.0672 -0.1745
    2CHTO  H227  427   4.338   3.446   1.252 -0.4123  0.8667  0.5889
    2CHTO   O77  428   4.239   3.460   1.062 -0.4306  0.5339 -0.7004
    2CHTO  C118  429   4.236   3.602   1.075  0.3968 -0.4101 -0.7631
    2CHTO  H222  430   4.318   3.638   1.139  0.7437 -0.8777 -0.9380
    2CHTO  C125  431   4.270   3.662   0.933 -0.0829  0.5748 -0.3178
    2CHTO   O84  432   4.405   3.662   0.898  0.0905  0.3713  0.3405
    2CHTO  H205  433   4.435   3.747   0.922  2.4847 -0.3839  0.1469
    2CHTO  C114  434   4.092   3.642   1.134  0.0608  0.0506  0.0738
    2CHTO  H218  435   4.019   3.613   1.059  1.4140  0.1833 -1.3015
    2CHTO  C116  436   4.071   3.567   1.274 -0.1651  0.5223  0.5301
    2CHTO  H220  437   4.139   3.616   1.347 -1.0219 -0.4791  2.0167
    2CHTO   O79  438   3.932   3.586   1.312 -0.3678  0.0460 -0.3977
    2CHTO  H201  439   3.937   3.558   1.401  0.3084  0.8669 -0.1635
    2CHTO  C120  440   4.115   3.415   1.262 -0.2156  0.3150 -0.3956
    2CHTO  H224  441   4.034   3.366   1.203 -0.2701  0.7802 -0.7167
    2CHTO   N21  442   4.107   3.356   1.395  0.2374 -0.1870 -0.8669
    2CHTO  H211  443   4.136   3.439   1.458 -3.8798  0.1092  0.8508
    2CHTO  H212  444   4.006   3.321   1.412  0.7091 -0.8663  0.7026
    2CHTO   O75  445   4.088   3.781   1.132  0.2523  0.3865 -0.0359
    2CHTO  C112  446   3.933   3.824   1.066 -0.0855 -0.1420  0.9867
    2CHTO  H216  447   3.853   3.755   1.100 -0.4811 -0.8400 -1.2867
    2CHTO   O73  448   3.944   3.819   0.922 -0.4992  0.2912 -0.5327
    2CHTO  C113  449   3.820   3.858   0.853  0.1455  0.9358  0.6600
    2CHTO  H217  450   3.746   3.796   0.908 -1.6363  2.6994  0.3050
    2CHTO  C124  451   3.830   3.801   0.712 -0.1955 -1.2181 -0.3076
    2CHTO   O83  452   3.699   3.785   0.654  0.0037 -0.1498 -0.1901
    2CHTO  H204  453   3.695   3.705   0.605 -1.9641 -0.6395  0.6899
    2CHTO  C109  454   3.796   4.004   0.869  0.5098 -0.1681  0.0648
    2CHTO  H213  455   3.878   4.060   0.822 -0.6407  0.7634 -0.8590
    2CHTO  C110  456   3.789   4.038   1.021  0.0796 -0.6316 -0.0216
    2CHTO  H214  457   3.686   4.018   1.051 -0.0203  0.9652  0.7659
    2CHTO   O78  458   3.798   4.184   1.038 -0.6248 -0.2357 -0.3220
    2CHTO  H200  459   3.712   4.218   1.023  0.2091  0.6322 -3.4722
    2CHTO  C111  460   3.896   3.972   1.109 -0.3980 -0.0506  0.1371
    2CHTO  H215  461   3.992   4.024   1.095 -0.8940  0.7419 -0.3367
    2CHTO   N19  462   3.865   3.988   1.255 -0.3220 -0.0080  1.2022
    2CHTO  H207  463   3.885   3.897   1.310  1.4822  1.2478  2.7322
    2CHTO  H208  464   3.767   4.026   1.277 -0.1988  1.6392 -0.8611
    2CHTO   O74  465   3.668   4.045   0.808  0.3718  0.0942  0.1669
    2CHTO  C115  466   3.694   4.136   0.656 -0.4985 -0.7706 -0.1066
    2CHTO  H219  467   3.800   4.137   0.629 -0.8130 -2.3048 -1.5288
    2CHTO   O76  468   3.622   4.070   0.541  0.2250 -0.1941 -0.3517
    2CHTO  C122  469   3.479   4.054   0.562  0.0900  0.9707 -0.6497
    2CHTO  H226  470   3.462   3.982   0.642 -2.0096  2.1926  0.0752
    2CHTO  C126  471   3.430   3.996   0.422  0.3487  0.6351 -0.0257
    2CHTO   O85  472   3.302   3.943   0.433  0.2761  0.1604  0.2574
    2CHTO  H206  473   3.252   3.947   0.353  1.0707  1.2313 -0.1901
    2CHTO  C121  474   3.410   4.192   0.607 -0.0672 -0.7635 -0.3713
    2CHTO  H225  475   3.336   4.208   0.525  0.0601  1.4584 -0.0889
    2CHTO   O81  476   3.326   4.178   0.714 -0.1902 -0.3768  0.4511
    2CHTO  H202  477   3.289   4.258   0.747 -1.0985 -1.1170  1.3001
    2CHTO  C119  478   3.505   4.318   0.605 -0.1029 -0.5114 -0.0266
    2CHTO  H223  479   3.532   4.328   0.499 -0.9787  2.4183 -0.0169
    2CHTO  C117  480   3.644   4.288   0.683  0.3934 -0.6588 -0.3160
    2CHTO  H221  481   3.634   4.298   0.791  2.5733 -0.4121 -0.1094
    2CHTO   N20  482   3.743   4.393   0.647  0.5380  0.1195 -0.1336
    2CHTO  H209  483   3.829   4.351   0.597 -0.4852 -0.4282 -1.4463
    2CHTO  H210  484   3.769   4.467   0.721  0.5284  0.4520 -0.4657
    2CHTO   O80  485   3.426   4.462   0.629  0.2872 -0.0006 -0.2557
    2CHTO  C103  486   3.418   4.566   0.525  0.2352  0.0492 -0.0844
    2CHTO  H190  487   3.506   4.584   0.464 -1.5073  0.0781 -2.6518
    2CHTO  C101  488   3.299   4.541   0.421  0.2062 -0.0310  0.3174
    2CHTO  H188  489   3.202   4.532   0.471 -0.3571  2.4787 -0.2335
    2CHTO   O68  490   3.324   4.395   0.335 -0.0171 -0.7244  0.1060
    2CHTO  H168  491   3.321   4.327   0.399 -0.3585 -0.7502  0.0597
    2CHTO   C99  492   3.273   4.667   0.329  0.9151 -0.3330  0.2955
    2CHTO  H186  493   3.360   4.691   0.264  0.2750  1.8273  0.1988
    2CHTO   N17  494   3.163   4.637   0.234  0.5426  0.4460 -0.2443
    2CHTO  H174  495   3.152   4.534   0.204  1.7522 -0.6930  2.9545
    2CHTO  H175  496   3.158   4.706   0.152 -0.8118 -0.7370 -1.1803
    2CHTO   C97  497   3.256   4.797   0.410 -0.4182  0.0375  0.0887
    2CHTO  H184  498   3.158   4.799   0.459 -1.9358 -1.1158 -2.7586
    2CHTO   O64  499   3.367   4.819   0.504  0.7090  0.0326  0.1163
    2CHTO  C104  500   3.384   4.703   0.596  0.3676  0.1529  0.0353
    2CHTO  H191  501   3.288   4.696   0.647  0.4711  0.0513  0.2206
    2CHTO  C108  502   3.483   4.741   0.707  0.6059 -0.0139  0.0969
    2CHTO   O71  503   3.475   4.876   0.745  0.3027 -0.2033  0.1019
    2CHTO  H171  504   3.494   4.927   0.669  0.6724  0.1537  0.4383
    2CHTO   O62  505   3.274   4.913   0.324  0.6895 -0.0750 -0.2553
    2CHTO   C91  506   3.187   5.027   0.344 -0.1907 -0.1367  0.0598
    2CHTO  H178  507   3.104   4.992   0.405 -0.2663 -4.6976 -2.4094
    2CHTO   C92  508   3.123   5.064   0.201 -0.1832  0.6177 -0.2439
    2CHTO  H179  509   3.210   5.094   0.140  0.5410 -0.7981  0.0865
    2CHTO   O66  510   3.069   4.946   0.134  0.2091 -0.3161  0.2997
    2CHTO  H166  511   3.013   4.963   0.061 -0.7903  1.5705  1.4406
    2CHTO   C93  512   3.015   5.177   0.209  0.5271 -0.8527  0.0130
    2CHTO  H180  513   2.925   5.129   0.250 -1.6320  0.5017 -2.9697
    2CHTO   N16  514   2.966   5.218   0.074 -0.5445  0.7331 -0.1985
    2CHTO  H172  515   3.043   5.247   0.004  0.8651 -0.3226  0.8947
    2CHTO  H173  516   2.891   5.295   0.088 -0.4911  0.3862  2.2110
    2CHTO   C94  517   3.064   5.291   0.309 -0.4074  0.7476 -0.0285
    2CHTO  H181  518   3.044   5.390   0.268 -2.0839  0.1080 -0.8167
    2CHTO   O61  519   3.207   5.279   0.335 -0.1641 -0.2036 -0.1170
    2CHTO   C95  520   3.255   5.159   0.401 -0.2859 -0.3274  0.8020
    2CHTO  H182  521   3.362   5.153   0.380 -1.0818 -0.9393 -3.5659
    2CHTO  C106  522   3.252   5.171   0.562 -0.1751 -0.5326  0.2669
    2CHTO   O69  523   3.299   5.060   0.628 -0.0443  0.5032 -0.2870
    2CHTO  H169  524   3.301   5.083   0.719 -0.6528  0.2067 -0.1977
    2CHTO   O63  525   2.986   5.269   0.453 -0.5522  0.5349  0.6019
    2CHTO   C96  526   2.854   5.366   0.453  0.0300 -0.2876 -0.4295
    2CHTO  H183  527   2.792   5.333   0.537  0.1621 -1.3647 -0.7486
    2CHTO   C98  528   2.761   5.356   0.330  0.0488  0.1473 -0.3173
    2CHTO  H185  529   2.820   5.371   0.238  0.4819 -0.9442 -0.2300
    2CHTO   O67  530   2.699   5.224   0.322  0.2599  0.2478  0.2112
    2CHTO  H167  531   2.695   5.188   0.236 -0.2405  3.9866 -1.4580
    2CHTO  C102  532   2.643   5.463   0.345 -0.1492 -0.2619 -0.2003
    2CHTO  H189  533   2.585   5.434   0.434 -1.5934 -0.3303 -1.1379
    2CHTO   N18  534   2.543   5.471   0.234 -0.5744 -0.1245  0.5816
    2CHTO  H176  535   2.597   5.485   0.142 -2.4296 -0.3943 -0.5788
    2CHTO  H177  536   2.477   5.557   0.235  1.8423  1.7770  1.4666
    2CHTO  C105  537   2.694   5.609   0.384  0.0899  0.5816 -0.2139
    2CHTO  H192  538   2.748   5.659   0.304 -0.0994  2.2530  0.6764
    2CHTO   O65  539   2.784   5.604   0.498  0.4604  0.1019  0.1624
    2CHTO  C100  540   2.893   5.516   0.498  0.3632  0.1836  0.1525
    2CHTO  H187  541   2.965   5.564   0.430 -0.9768  1.6864 -0.2140
    2CHTO  C107  542   2.950   5.525   0.643 -0.4429  0.4122 -0.7050
    2CHTO   O70  543   3.014   5.656   0.659 -0.5911 -0.2093  0.5083
    2CHTO  H170  544   3.031   5.691   0.573  0.2923  0.4970  0.9678
    2CHTO   O57  545   2.550   5.697   0.428  0.0749  0.6858 -0.3540
    2CHTO   C85  546   2.527   5.836   0.404  0.8620  0.5109 -0.8355
    2CHTO  H157  547   2.450   5.868   0.477 -0.4095 -1.0424 -1.4710
    2CHTO   C83  548   2.458   5.868   0.266  0.4456 -0.0672 -0.0730
    2CHTO  H155  549   2.363   5.815   0.256  0.2082  0.1094  1.1909
    2CHTO   O56  550   2.542   5.809   0.163  0.0323 -0.2451 -0.3607
    2CHTO  H135  551   2.522   5.721   0.136  1.7149 -0.4276 -1.0500
    2CHTO   C81  552   2.443   6.016   0.236  0.1970 -0.3901 -0.0644
    2CHTO  H153  553   2.379   6.060   0.313 -0.2489 -2.8905  1.0325
    2CHTO   N14  554   2.369   6.059   0.114  0.4322 -0.1684  0.1791
    2CHTO  H141  555   2.264   6.066   0.136 -0.0108  2.9764 -2.4687
    2CHTO  H142  556   2.405   6.155   0.083 -1.9958  0.1481 -1.8577
    2CHTO   C79  557   2.587   6.096   0.242 -0.4418  0.4891 -0.3911
    2CHTO  H151  558   2.570   6.202   0.226  1.6097  0.7036 -1.2681
    2CHTO   O52  559   2.656   6.066   0.375  0.4158 -0.9441  0.3249
    2CHTO   C86  560   2.662   5.931   0.416  0.3446  0.9911  0.2914
    2CHTO  H158  561   2.733   5.891   0.341 -1.9036  0.0526 -1.3928
    2CHTO   C90  562   2.739   5.909   0.559  0.3050 -0.3799  0.3448
    2CHTO   O60  563   2.878   5.944   0.546 -0.6537 -0.9782  0.0057
    2CHTO  H138  564   2.905   5.997   0.618  1.2868 -1.1520 -0.5444
    2CHTO   O50  565   2.679   6.076   0.132  0.1038 -0.0237 -0.2826
    2CHTO   C73  566   2.746   6.138   0.019  0.5533  0.7831 -0.3676
    2CHTO  H145  567   2.725   6.245   0.017  2.7732  1.3715  2.6817
    2CHTO   C74  568   2.697   6.072  -0.120  0.3788  0.4222  0.0224
    2CHTO  H146  569   2.588   6.064  -0.111  0.4619 -1.9457 -0.7248
    2CHTO   O54  570   2.711   6.172  -0.220 -0.6826 -0.5079 -0.0316
    2CHTO  H133  571   2.767   6.138  -0.288  1.1746  0.0483  1.1767
    2CHTO   C75  572   2.768   5.930  -0.144  0.3425  0.1985  0.9136
    2CHTO  H147  573   2.723   5.858  -0.074  2.6136 -3.0485 -0.8616
    2CHTO   N13  574   2.733   5.872  -0.272 -0.0502  0.0104 -0.4114
    2CHTO  H139  575   2.734   5.927  -0.365 -1.2197  0.4247 -0.1792
    2CHTO  H140  576   2.687   5.774  -0.271  1.5087 -0.7403  0.1748
    2CHTO   C76  577   2.923   5.933  -0.110  0.7375  0.3540  0.1155
    2CHTO  H148  578   2.960   6.010  -0.179  1.7867  0.8045  1.1599
    2CHTO   O49  579   2.938   5.980   0.028 -0.1968 -0.3154 -0.2271
    2CHTO   C77  580   2.904   6.120   0.037 -0.0657 -0.3414 -0.0300
    2CHTO  H149  581   2.958   6.186  -0.030  1.0067 -0.6448  0.5137
    2CHTO   C88  582   2.947   6.157   0.178 -0.4936 -0.6290  0.1339
    2CHTO   O58  583   2.944   6.294   0.195 -0.4584  0.2289 -0.0888
    2CHTO  H136  584   2.951   6.321   0.285  0.8543  2.2249 -0.7710
    2CHTO   O51  585   3.005   5.783  -0.130  0.4238 -0.0400  0.4366
    2CHTO   C78  586   3.121   5.754  -0.028  0.2683 -0.3401  0.2485
    2CHTO  H150  587   3.133   5.838   0.044  0.4261 -0.2126  0.0776
    2CHTO   C80  588   3.250   5.744  -0.107 -0.2688  0.2014  0.0850
    2CHTO  H152  589   3.237   5.666  -0.185 -0.3642 -1.7223  1.9729
    2CHTO   O55  590   3.277   5.870  -0.174 -0.0844  0.4403 -0.1738
    2CHTO  H134  591   3.223   5.880  -0.250  2.1518  1.5239 -1.6675
    2CHTO   C84  592   3.372   5.704  -0.017  1.0866 -0.1895  0.1644
    2CHTO  H156  593   3.388   5.793   0.044 -1.0343  0.5858 -0.3775
    2CHTO   N15  594   3.501   5.682  -0.092  0.3966  0.1633  0.3381
    2CHTO  H143  595   3.487   5.694  -0.198  2.2283  2.8709  0.3509
    2CHTO  H144  596   3.584   5.741  -0.061 -0.7016  2.6934 -1.3948
    2CHTO   C87  597   3.339   5.582   0.067  0.0750 -0.4951  0.0091
    2CHTO  H159  598   3.328   5.502  -0.007 -0.5337 -0.2737 -0.1411
    2CHTO   O53  599   3.194   5.603   0.136 -0.6077 -0.4438 -0.6954
    2CHTO   C82  600   3.090   5.625   0.046 -0.2721  0.7156  0.1659
    2CHTO  H154  601   3.075   5.540  -0.021 -3.3016  1.6774 -0.4672
    2CHTO   C89  602   2.954   5.642   0.110  0.7270  0.3982 -0.5236
    2CHTO   O59  603   2.830   5.611   0.039 -0.6499  0.3423 -0.7072
    2CHTO  H137  604   2.752   5.634   0.086 -1.1044  1.2245 -1.8859
    2CHTO   O45  605   3.474   5.536   0.172  0.0434  0.8976 -0.7921
    2CHTO   C67  606   3.472   5.606   0.304  1.0952  0.4705  0.1328
    2CHTO  H124  607   3.413   5.697   0.296 -0.5487 -0.5857  0.0480
    2CHTO   C65  608   3.415   5.510   0.412  0.2035 -0.3842  0.6504
    2CHTO  H122  609   3.449   5.412   0.380 -1.9936 -0.7389 -0.7760
    2CHTO   O44  610   3.279   5.523   0.404  0.0747 -0.1554 -0.0853
    2CHTO  H102  611   3.240   5.473   0.335  0.2896 -0.1224 -0.2318
    2CHTO   C63  612   3.490   5.538   0.558 -0.4874 -0.3749  0.3019
    2CHTO  H120  613   3.590   5.494   0.557 -0.6148 -0.6539 -0.5875
    2CHTO   N11  614   3.429   5.463   0.675 -0.0798  0.1827 -0.1321
    2CHTO  H108  615   3.506   5.466   0.749 -0.1010 -1.2145 -0.0304
    2CHTO  H109  616   3.424   5.359   0.648  0.0713  0.3530 -0.8151
    2CHTO   C61  617   3.514   5.693   0.572  0.0624  0.1578  0.0643
    2CHTO  H118  618   3.561   5.714   0.670  0.2370  1.1314 -0.2246
    2CHTO   O40  619   3.606   5.737   0.470  0.3304  0.3104  0.2527
    2CHTO   C68  620   3.609   5.655   0.350  0.4673 -0.4139  0.6752
    2CHTO  H125  621   3.670   5.568   0.384 -1.6474 -1.9889  0.5092
    2CHTO   C72  622   3.690   5.737   0.252  0.5509 -0.5221 -0.2264
    2CHTO   O48  623   3.617   5.850   0.207 -0.1386 -0.0885 -0.1411
    2CHTO  H105  624   3.629   5.846   0.114  0.7355 -0.0861 -0.0237
    2CHTO   O38  625   3.395   5.768   0.558  0.5650 -0.3494 -0.3818
    2CHTO   C55  626   3.390   5.913   0.579 -0.3728 -0.1433 -0.5059
    2CHTO  H112  627   3.487   5.957   0.555 -0.9604  2.4018  1.5778
    2CHTO   C56  628   3.345   5.946   0.728  0.7731  0.5405 -0.0304
    2CHTO  H113  629   3.262   5.880   0.755  0.8337  1.2681  2.0030
    2CHTO   O42  630   3.449   5.888   0.808 -0.0807  0.0558 -0.1228
    2CHTO  H100  631   3.442   5.795   0.797  1.1598 -0.0917  0.3035
    2CHTO   C57  632   3.317   6.104   0.750  0.1469 -0.0219  0.6024
    2CHTO  H114  633   3.410   6.160   0.740  0.5191 -0.5418  1.1117
    2CHTO   N10  634   3.267   6.125   0.885 -0.1399 -0.5571 -0.5864
    2CHTO  H106  635   3.160   6.134   0.892 -0.3229 -2.2051 -1.0332
    2CHTO  H107  636   3.313   6.207   0.937 -0.8259  0.0714 -0.9659
    2CHTO   C58  637   3.213   6.157   0.646 -0.1626  0.0614  0.2115
    2CHTO  H115  638   3.117   6.103   0.655  0.9945 -1.8042  1.8220
    2CHTO   O37  639   3.279   6.122   0.517  0.1271 -0.1368 -0.6290
    2CHTO   C59  640   3.283   5.981   0.489 -0.1378  0.6085 -0.2606
    2CHTO  H116  641   3.182   5.940   0.495  0.6181 -1.3817 -0.7251
    2CHTO   C70  642   3.314   5.955   0.343  0.0077  0.1448 -0.5099
    2CHTO   O46  643   3.223   6.013   0.253  0.0445  0.1110 -0.1219
    2CHTO  H103  644   3.260   6.009   0.167 -0.8618 -0.9876 -0.4739
    2CHTO   O39  645   3.196   6.314   0.654 -0.0588  0.3969 -0.0177
    2CHTO   C60  646   3.065   6.364   0.635  0.0637  0.2870  0.0302
    2CHTO  H117  647   3.017   6.310   0.553 -0.5237  1.5004 -0.4338
    2CHTO   C62  648   2.985   6.347   0.768  0.2729  0.2006  0.0047
    2CHTO  H119  649   2.966   6.240   0.787  0.4222  0.2925  0.6834
    2CHTO   O43  650   3.076   6.402   0.867  0.0985  0.5719 -0.0483
    2CHTO  H101  651   3.054   6.385   0.957 -0.4412 -0.0327 -0.2940
    2CHTO   C66  652   2.842   6.427   0.747 -0.4555 -0.4778 -0.1439
    2CHTO  H123  653   2.786   6.375   0.669 -0.9608  1.3039 -0.9879
    2CHTO   N12  654   2.771   6.434   0.880 -0.3617  0.1773  0.5906
    2CHTO  H110  655   2.731   6.334   0.883 -1.9071  0.8193  1.5440
    2CHTO  H111  656   2.696   6.511   0.872  0.5600  1.1006  0.5972
    2CHTO   C69  657   2.869   6.579   0.700 -0.2631  0.0524  0.9787
    2CHTO  H126  658   2.939   6.611   0.779  1.0212  1.0023 -0.5305
    2CHTO   O41  659   2.932   6.566   0.568 -0.9961 -0.8018 -0.1813
    2CHTO   C64  660   3.077   6.510   0.580  0.1630 -0.2693 -0.0976
    2CHTO  H121  661   3.135   6.570   0.653 -0.3093 -1.2077  1.0539
    2CHTO   C71  662   3.137   6.509   0.436  0.4898  0.6399 -0.3344
    2CHTO   O47  663   3.279   6.492   0.445  0.3809  0.4472  0.2808
    2CHTO  H104  664   3.328   6.512   0.367 -2.0370 -1.6835 -1.8493
    2CHTO   O34  665   2.734   6.663   0.695  0.5181 -0.2234  0.3059
    2CHTO   C49  666   2.670   6.739   0.825 -0.0806 -0.1959 -0.4032
    2CHTO   H91  667   2.627   6.667   0.894  0.2409 -1.8818 -1.9102
    2CHTO   C47  668   2.570   6.844   0.770 -0.6903  0.1688 -0.4551
    2CHTO   H89  669   2.529   6.888   0.864  0.1930  0.2051 -0.0764
    2CHTO   O33  670   2.463   6.768   0.710 -0.2075  0.0553  0.3553
    2CHTO   H70  671   2.423   6.703   0.765  0.1888  0.6875  1.4155
    2CHTO   C45  672   2.645   6.954   0.681  0.5750  0.6610 -0.3345
    2CHTO   H87  673   2.690   6.897   0.598 -0.0227 -1.2953  0.6460
    2CHTO    N8  674   2.556   7.057   0.627 -0.4051 -0.2278 -0.2792
    2CHTO   H75  675   2.523   7.115   0.713  1.5950  0.0225  0.3385
    2CHTO   H76  676   2.471   7.003   0.588  0.2445 -0.5994 -1.1647
    2CHTO   C43  677   2.776   7.014   0.758 -0.2357 -0.4058 -0.5161
    2CHTO   H85  678   2.837   7.070   0.687  2.4014 -1.8960  0.5140
    2CHTO   O29  679   2.852   6.906   0.817 -0.6315  0.0982 -0.3579
    2CHTO   C50  680   2.787   6.805   0.903 -0.7408  0.2183 -0.1066
    2CHTO   H92  681   2.866   6.727   0.903  0.1144  1.0477  1.6623
    2CHTO   C54  682   2.747   6.836   1.054  0.3344 -0.3284  0.0377
    2CHTO   O36  683   2.855   6.882   1.131 -0.0043 -0.0172  0.0438
    2CHTO   H72  684   2.826   6.895   1.219  1.3323  0.8292  0.3739
    2CHTO   O27  685   2.740   7.107   0.865  0.1401  0.2156 -0.2267
    2CHTO   C37  686   2.760   7.242   0.916 -0.1143  0.5223 -0.0882
    2CHTO   H79  687   2.746   7.319   0.839  2.5471  1.5899  0.4718
    2CHTO   C38  688   2.657   7.268   1.029  0.3913 -0.3657  0.2148
    2CHTO   H80  689   2.661   7.179   1.093  0.7823 -1.2180 -0.9605
    2CHTO   O31  690   2.528   7.273   0.972 -0.3139 -0.1273 -0.5199
    2CHTO   H68  691   2.532   7.323   0.892 -2.1280 -1.6725 -1.6124
    2CHTO   C39  692   2.682   7.389   1.121 -0.1011 -0.1623 -0.1738
    2CHTO   H81  693   2.643   7.478   1.071 -0.3334  0.9935  1.9992
    2CHTO    N7  694   2.600   7.384   1.243 -0.3399 -0.4281  0.5061
    2CHTO   H73  695   2.664   7.412   1.325 -0.3226  0.1011  0.3154
    2CHTO   H74  696   2.518   7.455   1.240  0.8067  0.9302  0.8451
    2CHTO   C40  697   2.838   7.400   1.151  0.6858  0.3829  0.4799
    2CHTO   H82  698   2.873   7.334   1.231  3.5102  0.2590 -0.7984
    2CHTO   O26  699   2.914   7.384   1.033  0.5231 -0.0843  0.7005
    2CHTO   C41  700   2.900   7.255   0.970 -0.5090 -0.4395 -0.2668
    2CHTO   H83  701   2.907   7.180   1.049 -2.0768  1.6558  1.9475
    2CHTO   C52  702   3.005   7.244   0.861 -0.0865  0.3932  0.2172
    2CHTO   O35  703   3.150   7.255   0.921 -0.1590  0.4010  0.3953
    2CHTO   H71  704   3.190   7.171   0.907 -2.4253 -0.8222  1.0241
    2CHTO   O28  705   2.862   7.532   1.196 -0.3035  0.3641 -0.7877
    2CHTO   C42  706   2.976   7.557   1.292  0.0346 -0.1770  0.1681
    2CHTO   H84  707   3.002   7.662   1.272 -1.2876  0.0602 -0.3352
    2CHTO   C44  708   3.116   7.478   1.278  0.0165 -0.1028  1.1905
    2CHTO   H86  709   3.093   7.374   1.254 -3.1365  1.2271 -1.9822
    2CHTO   O32  710   3.185   7.497   1.157 -0.0169 -0.4420  0.1228
    2CHTO   H69  711   3.225   7.582   1.157 -0.1727 -0.3525  1.6850
    2CHTO   C48  712   3.211   7.478   1.407 -0.9080  0.7559 -0.0258
    2CHTO   H90  713   3.270   7.569   1.415 -0.5320  0.6240 -1.1544
    2CHTO    N9  714   3.316   7.368   1.398 -0.2383 -0.4063  0.0036
    2CHTO   H77  715   3.261   7.275   1.394 -0.7101 -0.0548 -3.1411
    2CHTO   H78  716   3.379   7.370   1.310  2.8660 -1.2876  2.1428
    2CHTO   C51  717   3.131   7.472   1.540 -0.4148 -0.2958  0.2871
    2CHTO   H93  718   3.074   7.379   1.552 -0.9771  0.3749  3.4092
    2CHTO   O30  719   3.046   7.586   1.544 -0.4047  0.2269  0.2413
    2CHTO   C46  720   2.926   7.553   1.444 -0.0409  0.6610 -0.1746
    2CHTO   H88  721   2.889   7.456   1.478 -0.2125  0.9585  0.4927
    2CHTO   C53  722   2.824   7.664   1.475 -0.0406  0.2858 -0.8413
    2CHTO   O72  723   2.797   7.682   1.611  0.6826 -0.4222  0.6530
    2CHTO  H199  724   2.758   7.766   1.623 -1.1255 -1.3505  1.4744
    2CHTO   O22  725   3.223   7.476   1.656 -0.5453 -0.6254  0.3851
    2CHTO   C31  726   3.182   7.441   1.791 -0.7148 -0.0919 -0.1099
    2CHTO   H59  727   3.260   7.488   1.855 -1.3240  2.6058 -1.2545
    2CHTO   C29  728   3.049   7.500   1.843 -0.6114  0.1657  0.3038
    2CHTO   H57  729   2.972   7.459   1.776  1.0343 -1.9440 -0.3580
    2CHTO   O21  730   3.061   7.646   1.835 -0.1425  0.1017 -0.0136
    2CHTO   H37  731   3.132   7.686   1.882  1.6406 -0.5806 -2.0646
    2CHTO   C27  732   3.024   7.460   1.997  0.7380 -0.6502  0.5644
    2CHTO   H55  733   3.108   7.498   2.057  1.4341  1.0479 -1.4583
    2CHTO    N5  734   2.898   7.522   2.046  0.0001 -0.6823 -0.5029
    2CHTO   H43  735   2.861   7.603   1.985  3.5613  0.7236 -0.9333
    2CHTO   H44  736   2.817   7.455   2.072 -0.7174 -0.0213 -1.0189
    2CHTO   C25  737   3.027   7.300   2.001  0.3563  0.0423  0.1291
    2CHTO   H53  738   2.942   7.263   1.941  0.5154 -0.6306  0.3164
    2CHTO   O17  739   3.148   7.243   1.952 -0.0634  0.4894  0.2104
    2CHTO   C32  740   3.185   7.285   1.823  0.5146 -0.0805  0.1889
    2CHTO   H60  741   3.119   7.233   1.753 -1.5795  1.9782  0.5587
    2CHTO   C36  742   3.317   7.225   1.793  0.1019 -0.1197  0.3846
    2CHTO   O25  743   3.330   7.084   1.815 -0.0600 -0.0477 -0.2605
    2CHTO   H40  744   3.380   7.050   1.743 -1.0999 -1.0830 -0.5199
    2CHTO   O15  745   3.004   7.247   2.147  0.7454 -0.2902 -0.1971
    2CHTO   C19  746   3.065   7.252   2.284  0.0287 -0.1758  0.3499
    2CHTO   H47  747   3.097   7.150   2.312  0.1799 -0.7234 -1.7806
    2CHTO   C20  748   3.184   7.346   2.316 -0.6012 -0.1386  0.0909
    2CHTO   H48  749   3.169   7.450   2.283 -1.9260 -1.0735 -2.3365
    2CHTO   O19  750   3.286   7.298   2.222 -0.1917  0.3297  0.7743
    2CHTO   H35  751   3.333   7.223   2.252  1.3895  0.0105 -2.3364
    2CHTO   C21  752   3.231   7.339   2.472  0.1174  0.4055 -0.3142
    2CHTO   H49  753   3.258   7.237   2.500 -1.3846  0.7366  2.5090
    2CHTO    N4  754   3.349   7.416   2.507  0.4067 -0.6950 -0.5892
    2CHTO   H41  755   3.433   7.379   2.450  0.4658 -2.5627  0.6733
    2CHTO   H42  756   3.375   7.415   2.612  1.1870  0.8140 -0.7495
    2CHTO   C22  757   3.107   7.372   2.559  0.2366 -0.2964  0.0815
    2CHTO   H50  758   3.074   7.473   2.536  0.6915 -0.5896 -1.8887
    2CHTO   O14  759   2.998   7.287   2.527  0.2491 -0.2628  0.8960
    2CHTO   C23  760   2.954   7.300   2.389  0.2487  0.2184  0.1186
    2CHTO   H51  761   2.924   7.404   2.375  0.3765 -0.0706 -2.5193
    2CHTO   C34  762   2.830   7.200   2.378 -0.1679 -0.1387 -0.0864
    2CHTO   O23  763   2.870   7.058   2.368  0.2348 -0.0220 -0.4516
    2CHTO   H38  764   2.803   7.001   2.402  0.3022  1.2227  1.8195
    2CHTO   O16  765   3.134   7.358   2.699  0.4680 -0.1802 -0.2986
    2CHTO   C24  766   3.074   7.462   2.794 -0.1728  1.4892  1.2284
    2CHTO   H52  767   3.036   7.546   2.736 -0.7709  1.0514  0.9792
    2CHTO   C26  768   3.184   7.510   2.885 -0.3320 -0.4482 -0.7133
    2CHTO   H54  769   3.223   7.424   2.942  0.8426  0.1997 -0.5242
    2CHTO   O20  770   3.292   7.570   2.815  0.7616  0.5765 -0.3943
    2CHTO   H36  771   3.362   7.587   2.876  1.0365 -0.4498 -0.4216
    2CHTO   C30  772   3.131   7.611   2.991  0.9235  1.0959  0.7240
    2CHTO   H58  773   3.119   7.710   2.943  2.1524  0.0156 -1.9166
    2CHTO    N6  774   3.233   7.633   3.099 -0.6223 -0.0656  0.4759
    2CHTO   H45  775   3.321   7.682   3.060 -0.1397  0.1749  1.8428
    2CHTO   H46  776   3.262   7.539   3.143  2.0897  0.6401  0.2798
    2CHTO   C33  777   2.996   7.568   3.057 -0.6459  0.0169  0.2565
    2CHTO   H61  778   3.014   7.491   3.134 -0.3955 -2.1106 -1.8360
    2CHTO   O18  779   2.908   7.517   2.951  0.2692 -0.0151  0.2067
    2CHTO   C28  780   2.957   7.406   2.874 -0.0731  0.0657  0.2797
    2CHTO   H56  781   2.996   7.322   2.932  1.9129  0.6109 -0.2107
    2CHTO   C35  782   2.839   7.367   2.784 -0.0106 -0.7082 -0.0745
    2CHTO   O24  783   2.815   7.226   2.772  0.0202 -0.2457  0.1162
    2CHTO   H39  784   2.899   7.188   2.753 -0.8204 -2.2409  0.2320
    2CHTO    O9  785   2.934   7.674   3.127 -0.0267 -0.0630 -0.2693
    2CHTO   C13  786   2.823   7.625   3.227 -0.3453  0.6896 -0.0381
    2CHTO   H26  787   2.780   7.531   3.185  1.1207  0.1358 -0.3050
    2CHTO   C11  788   2.712   7.732   3.243  0.3572  0.0619  0.2154
    2CHTO   H24  789   2.672   7.752   3.143  1.1495 -2.8937 -0.7468
    2CHTO    O8  790   2.772   7.857   3.286 -0.0348 -0.1864  0.3069
    2CHTO    H3  791   2.766   7.863   3.379 -0.5742 -1.0681  0.3400
    2CHTO    C9  792   2.603   7.673   3.333  0.8423  0.9760 -0.6576
    2CHTO   H22  793   2.573   7.574   3.294 -0.0340  0.7347  0.5958
    2CHTO    N2  794   2.477   7.746   3.328  0.0984  0.2378 -0.0984
    2CHTO   H10  795   2.451   7.758   3.224  0.2091  1.3749  0.0002
    2CHTO   H11  796   2.399   7.690   3.379  0.0630  0.0125 -0.3984
    2CHTO    C7  797   2.654   7.643   3.480  0.0207  0.4648  0.4830
    2CHTO   H20  798   2.583   7.570   3.523  0.2180  0.9618  1.6549
    2CHTO    O4  799   2.784   7.582   3.477  0.3634 -0.4863  0.0432
    2CHTO   C14  800   2.878   7.585   3.366 -0.4783  0.3006  0.1859
    2CHTO   H27  801   2.905   7.477   3.359 -0.4556  0.3337 -0.2406
    2CHTO   C18  802   3.012   7.664   3.409 -0.3075  0.3009  0.3834
    2CHTO   O13  803   3.081   7.605   3.519  0.2093  0.6799  0.5423
    2CHTO    H7  804   3.121   7.531   3.477  0.8069  1.2362  0.1167
    2CHTO    O2  805   2.658   7.795   3.566  0.4063 -0.3286  0.2600
    2CHTO    C1  806   2.655   7.785   3.709  0.1883  0.3894  0.0121
    2CHTO   H14  807   2.711   7.690   3.723  2.2304  1.0046 -3.3541
    2CHTO    C2  808   2.515   7.774   3.771 -0.2785 -0.2460 -0.1712
    2CHTO   H15  809   2.466   7.860   3.722  0.8787  1.6046  1.8267
    2CHTO    O6  810   2.460   7.650   3.729 -0.6364  0.0520 -0.7824
    2CHTO    H1  811   2.375   7.673   3.696 -0.6058  1.7148  0.2149
    2CHTO    C3  812   2.517   7.783   3.929  0.0720 -0.2715 -0.0608
    2CHTO   H16  813   2.557   7.696   3.982 -3.0265 -1.8673 -0.2404
    2CHTO    N1  814   2.373   7.785   3.976  0.2068 -0.0414 -0.5235
    2CHTO    H8  815   2.369   7.791   4.084  0.8373 -1.6131 -0.3908
    2CHTO    H9  816   2.314   7.862   3.929 -1.2700  0.4416  2.0283
    2CHTO    C4  817   2.608   7.908   3.968  0.2141  0.2965  0.3171
    2CHTO   H17  818   2.564   7.999   3.927 -0.1665 -0.1348 -0.2434
    2CHTO    O1  819   2.740   7.890   3.916  0.0062 -0.2661 -0.0586
    2CHTO    C5  820   2.745   7.905   3.770 -0.6789  0.2957  0.0414
    2CHTO   H18  821   2.708   8.005   3.746  0.4802  0.1987 -2.3022
    2CHTO   C16  822   2.897   7.898   3.730 -0.1470 -0.0338 -0.1077
    2CHTO   O11  823   2.914   7.955   3.597 -0.0835 -0.2676 -0.3687
    2CHTO    H5  824   2.871   8.038   3.585 -0.1032 -0.3444 -0.8352
    2CHTO    O3  825   2.616   7.924   4.115  0.1073 -0.2429  0.1107
    2CHTO    C6  826   2.667   8.060   4.161 -0.1520  0.3819 -0.6263
    2CHTO   H19  827   2.705   8.120   4.078 -0.2492  0.9799 -0.2391
    2CHTO    C8  828   2.564   8.134   4.254  0.4750  0.4834 -0.5268
    2CHTO   H21  829   2.515   8.064   4.321  0.3386  0.0947 -1.0349
    2CHTO    O7  830   2.471   8.200   4.170  0.2706  0.0544 -0.0137
    2CHTO    H2  831   2.509   8.263   4.112 -1.7561 -1.0923 -2.6970
    2CHTO   C12  832   2.622   8.246   4.350  0.2779  0.2886  0.4513
    2CHTO   H25  833   2.655   8.331   4.287 -0.2389  1.0562  1.2066
    2CHTO    N3  834   2.529   8.303   4.448  0.0031  0.5874  0.0556
    2CHTO   H12  835   2.441   8.243   4.468  1.5263 -1.8287 -0.3167
    2CHTO   H13  836   2.579   8.336   4.538  0.1576  2.5464 -0.7147
    2CHTO   C15  837   2.749   8.194   4.426 -0.4701 -0.0123  0.7172
    2CHTO   H28  838   2.722   8.123   4.504  3.0970 -1.0308  1.1193
    2CHTO   O10  839   2.836   8.303   4.483  0.0614  0.2755 -0.0075
    2CHTO    H4  840   2.827   8.378   4.428  1.6975  0.9260  0.5779
    2CHTO    O5  841   2.835   8.153   4.321  0.1044 -0.0714 -0.2952
    2CHTO   C10  842   2.789   8.037   4.254 -0.4281  0.6307 -0.4993
    2CHTO   H23  843   2.772   7.957   4.326  0.9704  1.2572  0.5440
    2CHTO   C17  844   2.900   7.996   4.163  0.3632 -0.2875  0.5471
    2CHTO   O12  845   3.009   7.943   4.245  0.9898 -0.5883 -0.4262
    2CHTO    H6  846   3.086   7.995   4.236  3.1138 -3.5997 -0.3748
    3CHTO  H203  847   6.710   2.927   1.802 -1.0705 -2.7458 -0.0334
    3CHTO   O82  848   6.791   2.881   1.800  0.5051 -0.1002  0.4663
    3CHTO  C123  849   6.806   2.751   1.864 -0.9425  0.3514  0.7034
    3CHTO  H227  850   6.913   2.732   1.878 -0.5478 -0.2710 -2.7762
    3CHTO   O77  851   6.751   2.762   2.000  0.5342 -0.3673 -0.2834
    3CHTO  C118  852   6.732   2.647   2.076  0.1944 -0.0274 -0.0979
    3CHTO  H222  853   6.828   2.595   2.095  1.0441  1.4245 -0.3397
    3CHTO  C125  854   6.669   2.695   2.214 -0.1610 -0.1713 -0.2530
    3CHTO   O84  855   6.675   2.604   2.326  0.7596  0.1204  0.3863
    3CHTO  H205  856   6.584   2.584   2.338  0.7217  0.7335  1.1989
    3CHTO  C114  857   6.647   2.540   2.007  0.0030 -0.3670 -0.0781
    3CHTO  H218  858   6.546   2.577   1.989 -0.2796 -0.8254  0.5695
    3CHTO  C116  859   6.700   2.506   1.863 -0.0307  0.0989 -0.4272
    3CHTO  H220  860   6.788   2.442   1.882  0.3234  0.0619 -2.1123
    3CHTO   O79  861   6.603   2.421   1.792  0.3793  0.1082  0.8275
    3CHTO  H201  862   6.593   2.452   1.704 -0.9671  2.7579  1.8750
    3CHTO  C120  863   6.737   2.634   1.771  0.7044  0.1178  0.5805
    3CHTO  H224  864   6.637   2.666   1.736  0.9020  0.6152  0.4695
    3CHTO   N21  865   6.825   2.603   1.654 -0.1574  0.3382 -0.8052
    3CHTO  H211  866   6.771   2.545   1.581  0.3541  1.6802 -2.2871
    3CHTO  H212  867   6.908   2.551   1.699  0.9659  0.1060 -3.0740
    3CHTO   O75  868   6.635   2.433   2.105 -0.3250  0.5341 -0.0396
    3CHTO  C112  869   6.675   2.273   2.070  0.4544  0.4640 -0.3665
    3CHTO  H216  870   6.758   2.270   1.999  2.4091  2.5740  1.7421
    3CHTO   O73  871   6.558   2.202   2.018  0.1355 -0.0505  0.1367
    3CHTO  C113  872   6.567   2.061   1.994 -0.1549 -0.3909 -0.4566
    3CHTO  H217  873   6.639   2.043   1.912  0.6765  0.1588  0.1424
    3CHTO  C124  874   6.424   2.018   1.951  0.1838  0.4211 -0.3124
    3CHTO   O83  875   6.359   2.085   1.838 -0.3403 -0.2676 -0.5384
    3CHTO  H204  876   6.335   2.169   1.873  2.3500 -0.0132  0.8528
    3CHTO  C109  877   6.607   1.989   2.125  0.6039  0.4645  0.4188
    3CHTO  H213  878   6.518   1.998   2.189  0.3538 -3.1192  0.6792
    3CHTO  C110  879   6.734   2.051   2.196  0.9821  0.1890 -0.1818
    3CHTO  H214  880   6.818   2.011   2.139 -0.0332 -0.4683 -1.2560
    3CHTO   O78  881   6.751   2.002   2.331  0.0120 -0.0940 -0.2296
    3CHTO  H200  882   6.826   2.027   2.381  0.9230 -1.4194 -0.8913
    3CHTO  C111  883   6.728   2.208   2.206 -0.1714  1.0639 -0.4578
    3CHTO  H215  884   6.649   2.237   2.277 -0.5428 -0.2128 -0.3244
    3CHTO   N19  885   6.853   2.272   2.253 -0.1942 -0.8510  0.0546
    3CHTO  H207  886   6.837   2.376   2.274 -0.4807 -0.7894 -0.4658
    3CHTO  H208  887   6.919   2.275   2.167 -0.7825  1.6202 -0.3229
    3CHTO   O74  888   6.632   1.849   2.098 -0.3339  0.4602 -0.4138
    3CHTO  C115  889   6.597   1.755   2.226 -0.0862  0.1152 -0.3027
    3CHTO  H219  890   6.669   1.766   2.308  1.7062 -0.4112 -1.7711
    3CHTO   O76  891   6.440   1.788   2.294  0.1572 -0.2552 -0.3244
    3CHTO  C122  892   6.336   1.758   2.203 -0.1436  0.1489  0.9232
    3CHTO  H226  893   6.332   1.846   2.138  0.5760  0.2249  0.9740
    3CHTO  C126  894   6.196   1.750   2.275 -0.4257  0.1028  0.3438
    3CHTO   O85  895   6.198   1.670   2.394  0.1302  0.5042  0.4476
    3CHTO  H206  896   6.138   1.598   2.390 -1.3049  1.7259 -0.7026
    3CHTO  C121  897   6.365   1.632   2.112  0.3973  0.4042 -0.0203
    3CHTO  H225  898   6.269   1.576   2.117  0.1979  0.4387 -2.4504
    3CHTO   O81  899   6.384   1.665   1.971 -0.0992 -0.3017 -1.1073
    3CHTO  H202  900   6.445   1.735   1.955 -0.4938  0.2896 -0.0850
    3CHTO  C119  901   6.469   1.539   2.170  0.0181 -0.0515 -0.2377
    3CHTO  H223  902   6.435   1.526   2.273 -0.9561  0.8385 -0.4293
    3CHTO  C117  903   6.607   1.605   2.173 -0.0495 -0.3493  0.4344
    3CHTO  H221  904   6.643   1.618   2.071 -0.4049  3.0814  0.6611
    3CHTO   N20  905   6.713   1.528   2.241 -0.6119  0.3013 -0.0772
    3CHTO  H209  906   6.712   1.430   2.196  0.7976 -0.2334  1.0188
    3CHTO  H210  907   6.692   1.510   2.346  1.3921  0.4913  0.3723
    3CHTO   O80  908   6.461   1.384   2.108 -0.1001  0.3052 -0.3645
    3CHTO  C103  909   6.379   1.259   2.194  0.9501  0.1509  0.3573
    3CHTO  H190  910   6.386   1.267   2.302 -0.6307  0.9292  0.4249
    3CHTO  C101  911   6.223   1.241   2.147 -0.4005  0.3632 -0.9321
    3CHTO  H188  912   6.210   1.251   2.039 -3.2267  1.6799 -0.5248
    3CHTO   O68  913   6.125   1.356   2.216 -0.6843 -0.6593  0.6218
    3CHTO  H168  914   6.094   1.325   2.300 -0.1601 -3.1531 -0.0645
    3CHTO   C99  915   6.178   1.087   2.193  0.2303  0.3693 -0.0815
    3CHTO  H186  916   6.184   1.080   2.304  1.9235 -1.1328 -0.2477
    3CHTO   N17  917   6.044   1.055   2.152 -0.4839  0.7322 -0.4431
    3CHTO  H174  918   6.038   1.097   2.053 -0.5028 -2.0028 -1.6405
    3CHTO  H175  919   6.032   0.948   2.147  2.3322  0.0377  4.3284
    3CHTO   C97  920   6.284   0.979   2.143 -0.1494 -0.6128 -0.3962
    3CHTO  H184  921   6.293   0.978   2.033 -1.8209 -0.1125 -0.5554
    3CHTO   O64  922   6.416   1.000   2.205  0.0394 -0.4481 -0.7089
    3CHTO  C104  923   6.467   1.131   2.159 -0.7788  0.0178  1.0497
    3CHTO  H191  924   6.482   1.122   2.051  2.4086 -1.8004  1.5730
    3CHTO  C108  925   6.607   1.144   2.224  0.5953  0.2404 -0.0053
    3CHTO   O71  926   6.611   1.113   2.364 -0.1593  0.4590  0.0739
    3CHTO  H171  927   6.669   1.044   2.391  1.6493  3.0539  3.3716
    3CHTO   O62  928   6.249   0.845   2.195  0.6909  0.3808  0.2990
    3CHTO   C91  929   6.317   0.729   2.134  0.5268 -0.3794 -0.2121
    3CHTO  H178  930   6.398   0.762   2.070 -0.1749 -0.6191 -1.2506
    3CHTO   C92  931   6.222   0.650   2.038 -0.4651  0.7414 -0.3242
    3CHTO  H179  932   6.129   0.639   2.095 -0.7157 -0.2044 -0.9207
    3CHTO   O66  933   6.196   0.744   1.929  0.2289 -0.1833  0.0745
    3CHTO  H166  934   6.168   0.702   1.850  0.2435  2.1385 -1.2220
    3CHTO   C93  935   6.287   0.516   1.978  0.3900 -0.5626 -0.6243
    3CHTO  H180  936   6.359   0.541   1.899 -1.0047  1.5865 -1.2776
    3CHTO   N16  937   6.185   0.438   1.913 -0.1255  0.2766  0.2888
    3CHTO  H172  938   6.122   0.495   1.846 -1.8878  1.4879  2.8900
    3CHTO  H173  939   6.230   0.355   1.861  0.5182  0.4502  0.5684
    3CHTO   C94  940   6.354   0.435   2.093 -0.6880  0.3786  0.1827
    3CHTO  H181  941   6.280   0.389   2.158 -2.4715  2.1792 -0.5192
    3CHTO   O61  942   6.439   0.522   2.169 -0.4470 -0.1115  0.1359
    3CHTO   C95  943   6.368   0.626   2.239 -0.2280 -0.6151  0.1421
    3CHTO  H182  944   6.291   0.581   2.302 -1.7630  0.5588 -0.8510
    3CHTO  C106  945   6.472   0.696   2.338  0.2229 -0.4040  0.4265
    3CHTO   O69  946   6.417   0.805   2.411  0.4967  0.1231  0.9266
    3CHTO  H169  947   6.477   0.849   2.468  1.3822 -2.0127  1.6841
    3CHTO   O63  948   6.455   0.316   2.040  0.7344  0.0779 -0.4523
    3CHTO   C96  949   6.422   0.155   2.056  0.4393  0.2660  0.2049
    3CHTO  H183  950   6.514   0.110   2.021  1.2296  3.4677 -2.0050
    3CHTO   C98  951   6.297   0.103   1.975 -0.7103 -0.1238  0.7940
    3CHTO  H185  952   6.209   0.169   1.984  0.2439  1.3196 -0.4052
    3CHTO   O67  953   6.334   0.120   1.839 -0.0359 -0.6373 -0.4512
    3CHTO  H167  954   6.341   0.212   1.823 -2.0804 -0.4370 -0.2501
    3CHTO  C102  955   6.262  -0.051   2.007  0.1487 -1.1133  0.3771
    3CHTO  H189  956   6.337  -0.110   1.953 -0.6690 -0.3030 -1.6822
    3CHTO   N18  957   6.126  -0.100   1.966  0.0540 -0.4065  0.1267
    3CHTO  H176  958   6.099  -0.059   1.870 -2.6946  1.5698  1.6589
    3CHTO  H177  959   6.056  -0.062   2.039 -0.9272 -1.5271 -0.2104
    3CHTO  C105  960   6.293  -0.091   2.154  0.1365  0.1119 -0.3633
    3CHTO  H192  961   6.207  -0.062   2.215  0.3882 -0.0858  0.0809
    3CHTO   O65  962   6.406  -0.030   2.208  0.2180 -0.3744 -0.2084
    3CHTO  C100  963   6.392   0.113   2.209 -0.7332  0.1633  0.0621
    3CHTO  H187  964   6.302   0.151   2.259 -1.5511  0.7995 -1.8288
    3CHTO  C107  965   6.509   0.163   2.302  0.0467  0.5166 -0.2434
    3CHTO   O70  966   6.493   0.309   2.310 -0.0615  0.1270  0.0340
    3CHTO  H170  967   6.556   0.332   2.375  0.6011 -0.2745 -0.4661
    3CHTO   O57  968   6.313  -0.249   2.152 -0.0847  0.0469 -0.0451
    3CHTO   C85  969   6.279  -0.326   2.263 -0.1194 -0.1933  0.0805
    3CHTO  H157  970   6.346  -0.415   2.259  1.0597  0.6591  0.6416
    3CHTO   C83  971   6.139  -0.383   2.242  0.8821  0.2172  0.0471
    3CHTO  H155  972   6.138  -0.454   2.160 -1.0878  1.5385 -1.1069
    3CHTO   O56  973   6.044  -0.280   2.207  0.4516  0.1622 -0.0233
    3CHTO  H135  974   5.995  -0.294   2.129 -1.8741 -0.7511  1.5564
    3CHTO   C81  975   6.093  -0.463   2.367 -0.3328  0.1704  0.4225
    3CHTO  H153  976   6.170  -0.538   2.384 -0.9999 -0.4451  0.7942
    3CHTO   N14  977   5.971  -0.544   2.340 -0.1019 -0.0683 -0.0718
    3CHTO  H141  978   5.886  -0.480   2.341 -0.8114 -1.0124  0.0767
    3CHTO  H142  979   5.974  -0.598   2.248  0.5888 -0.5621  0.2290
    3CHTO   C79  980   6.085  -0.374   2.484 -0.4188 -0.4145  0.0131
    3CHTO  H151  981   6.055  -0.433   2.571  1.1520  1.6634  2.0678
    3CHTO   O52  982   6.218  -0.320   2.521 -0.3187  0.0036 -0.1516
    3CHTO   C86  983   6.290  -0.254   2.408  0.4243 -0.0002  0.4950
    3CHTO  H158  984   6.246  -0.151   2.407 -1.3519 -0.7297  0.7263
    3CHTO   C90  985   6.435  -0.236   2.455 -0.3925 -0.2661  0.5157
    3CHTO   O60  986   6.501  -0.360   2.485  0.2379  0.5188 -0.1874
    3CHTO  H138  987   6.579  -0.373   2.434 -0.0096  0.6982 -0.6084
    3CHTO   O50  988   5.982  -0.268   2.471  0.1394 -0.4182 -0.0613
    3CHTO   C73  989   5.907  -0.214   2.579 -1.3860  0.1009 -0.4817
    3CHTO  H145  990   5.965  -0.234   2.670 -0.7590  0.6283 -0.7615
    3CHTO   C74  991   5.766  -0.287   2.597  0.8546 -0.2093 -0.1997
    3CHTO  H146  992   5.805  -0.388   2.615  0.0600 -0.3822  0.5753
    3CHTO   O54  993   5.691  -0.241   2.713  0.0088 -0.6250  0.2316
    3CHTO  H133  994   5.651  -0.157   2.698  1.1305  0.4032  2.6708
    3CHTO   C75  995   5.698  -0.270   2.463  0.2188  0.5722  1.0635
    3CHTO  H147  996   5.770  -0.300   2.385 -2.4454 -0.6885 -0.9819
    3CHTO   N13  997   5.571  -0.345   2.450  0.4344  0.5599  0.1525
    3CHTO  H139  998   5.567  -0.402   2.359 -0.8859  1.6480 -0.4968
    3CHTO  H140  999   5.558  -0.411   2.534  0.3513 -0.3538 -0.5783
    3CHTO   C76 1000   5.673  -0.122   2.437 -0.4486  0.7221  0.2571
    3CHTO  H148 1001   5.606  -0.085   2.514 -0.5482 -0.0181  0.5278
    3CHTO   O49 1002   5.794  -0.038   2.450 -0.3240  0.2447 -0.1106
    3CHTO   C77 1003   5.883  -0.058   2.560  0.1924  0.1655 -0.1710
    3CHTO  H149 1004   5.825  -0.023   2.645  0.4516  2.4924 -0.9121
    3CHTO   C88 1005   6.011   0.027   2.553  0.0684 -1.0856  0.4939
    3CHTO   O58 1006   6.081   0.012   2.437 -0.2932 -0.1427  0.1059
    3CHTO  H136 1007   6.172   0.029   2.448  0.2411 -1.0737 -2.4082
    3CHTO   O51 1008   5.619  -0.106   2.294  0.2999 -0.3054 -0.2364
    3CHTO   C78 1009   5.591   0.037   2.256  0.2552 -0.2060  1.1793
    3CHTO  H150 1010   5.665   0.108   2.298  1.0201 -0.1690 -0.1949
    3CHTO   C80 1011   5.446   0.076   2.288 -0.6580 -0.2046 -0.1894
    3CHTO  H152 1012   5.375   0.002   2.245 -0.3522 -0.8986  0.5010
    3CHTO   O55 1013   5.429   0.064   2.432  0.4633 -0.1813 -0.8852
    3CHTO  H134 1014   5.350   0.104   2.462  0.8585  0.8623 -1.1896
    3CHTO   C84 1015   5.419   0.228   2.238 -0.4200 -0.3400 -0.3273
    3CHTO  H156 1016   5.480   0.299   2.294 -0.8508  0.2351 -0.5836
    3CHTO   N15 1017   5.274   0.267   2.259  0.4160 -0.4390  1.0202
    3CHTO  H143 1018   5.269   0.362   2.210  0.7059 -1.6631 -1.5092
    3CHTO  H144 1019   5.225   0.197   2.194  0.5872 -0.8372  1.3173
    3CHTO   C87 1020   5.465   0.246   2.091  0.4546 -0.0588  0.1575
    3CHTO  H159 1021   5.393   0.186   2.034  1.5509 -2.2502  1.0420
    3CHTO   O53 1022   5.607   0.188   2.057  0.1232 -0.1934 -0.2913
    3CHTO   C82 1023   5.611   0.054   2.102 -0.4308 -0.6468 -0.3503
    3CHTO  H154 1024   5.534   0.002   2.045 -0.7755  0.6236 -1.0757
    3CHTO   C89 1025   5.745  -0.008   2.061 -0.4109 -0.1174  0.4224
    3CHTO   O59 1026   5.785   0.015   1.927  0.1803  0.3771  0.2235
    3CHTO  H137 1027   5.713   0.014   1.867 -0.4051  1.7696  0.8835
    3CHTO   O45 1028   5.470   0.391   2.052 -0.2358 -0.1440 -0.1079
    3CHTO   C67 1029   5.578   0.474   2.093  0.1344  0.2990 -0.1087
    3CHTO  H124 1030   5.637   0.427   2.172 -0.3665  0.1069  0.1510
    3CHTO   C65 1031   5.675   0.499   1.963 -0.2451 -0.1271  0.0400
    3CHTO  H122 1032   5.612   0.483   1.876 -0.0130 -0.0697 -0.1410
    3CHTO   O44 1033   5.778   0.402   1.972 -0.1108  0.3918  0.9383
    3CHTO  H102 1034   5.854   0.436   1.927 -0.0172  0.9824  1.5371
    3CHTO   C63 1035   5.719   0.650   1.956  0.3555 -0.1902 -0.0817
    3CHTO  H120 1036   5.637   0.710   1.916  0.1552 -0.6553 -0.3620
    3CHTO   N11 1037   5.833   0.689   1.857  0.0336  0.0219  0.2927
    3CHTO  H108 1038   5.800   0.710   1.757 -1.6146 -1.0856  0.5937
    3CHTO  H109 1039   5.877   0.780   1.892  0.2108 -0.2525  0.7812
    3CHTO   C61 1040   5.760   0.702   2.096 -0.0245  0.0040  0.0170
    3CHTO  H118 1041   5.789   0.808   2.089  1.5143 -0.3346  0.9239
    3CHTO   O40 1042   5.641   0.703   2.182 -0.2747 -0.1672 -0.7138
    3CHTO   C68 1043   5.529   0.609   2.152  0.1408 -0.8524  0.9718
    3CHTO  H125 1044   5.459   0.659   2.082  1.4449 -0.1013  0.1873
    3CHTO   C72 1045   5.449   0.579   2.280  0.2089  0.2027 -0.4125
    3CHTO   O48 1046   5.431   0.679   2.382 -0.3666 -0.2281 -0.0985
    3CHTO  H105 1047   5.502   0.683   2.443 -0.7040  2.6411  0.1450
    3CHTO   O38 1048   5.861   0.617   2.151 -0.3054 -0.3393  0.3599
    3CHTO   C55 1049   5.880   0.605   2.289 -0.3432  1.1799  0.2250
    3CHTO  H112 1050   5.787   0.565   2.332 -1.0653  1.6883 -0.8599
    3CHTO   C56 1051   5.933   0.734   2.367  0.4956  0.2515  0.0307
    3CHTO  H113 1052   6.028   0.762   2.318  0.9199 -1.4187 -0.1501
    3CHTO   O42 1053   5.848   0.841   2.341  0.3151 -0.1368  0.1154
    3CHTO  H100 1054   5.892   0.916   2.376  0.2894  0.2636 -0.6992
    3CHTO   C57 1055   5.951   0.701   2.523  0.1677 -0.6359 -0.1331
    3CHTO  H114 1056   5.852   0.693   2.568 -0.5991 -1.1770 -1.8763
    3CHTO   N10 1057   6.016   0.816   2.596 -0.1636 -0.4982 -0.3188
    3CHTO  H106 1058   5.989   0.912   2.554  1.3270  0.5075  0.9631
    3CHTO  H107 1059   6.121   0.805   2.615 -0.0724  1.7830  0.6529
    3CHTO   C58 1060   6.035   0.571   2.540  0.3072  0.3613 -0.0458
    3CHTO  H115 1061   6.142   0.589   2.515  0.1687 -0.5050 -1.3537
    3CHTO   O37 1062   5.984   0.466   2.455  0.4238  0.0291 -0.1128
    3CHTO   C59 1063   5.983   0.496   2.319  0.2875  0.0482 -0.4783
    3CHTO  H116 1064   6.081   0.523   2.280  1.6818 -1.5575  1.7360
    3CHTO   C70 1065   5.955   0.365   2.245  0.2361 -0.2293  0.0031
    3CHTO   O46 1066   5.827   0.315   2.276 -0.6934  0.8125  0.1610
    3CHTO  H103 1067   5.792   0.240   2.232  1.3102  0.2093 -0.4523
    3CHTO   O39 1068   6.010   0.511   2.696  0.1167 -0.0645  0.4047
    3CHTO   C60 1069   6.076   0.382   2.706  0.3016 -0.1562  0.0862
    3CHTO  H117 1070   6.036   0.312   2.633  1.9005  0.1874 -1.1733
    3CHTO   C62 1071   6.230   0.400   2.699  0.3410  0.1091 -0.0490
    3CHTO  H119 1072   6.242   0.441   2.597 -0.7266 -0.8997 -0.5870
    3CHTO   O43 1073   6.266   0.509   2.782 -0.4542  0.3063  0.1169
    3CHTO  H101 1074   6.212   0.584   2.798 -0.2786  0.3136  0.7040
    3CHTO   C66 1075   6.307   0.266   2.709 -0.3544 -0.5697  0.8078
    3CHTO  H123 1076   6.260   0.190   2.646 -2.1201  0.4499  0.8431
    3CHTO   N12 1077   6.447   0.282   2.670 -0.1230  0.0838 -0.3544
    3CHTO  H110 1078   6.499   0.369   2.708 -1.0773  0.5169 -0.0387
    3CHTO  H111 1079   6.500   0.188   2.682 -0.1525  0.0210 -0.6949
    3CHTO   C69 1080   6.279   0.211   2.852  0.4423 -1.0395  0.4759
    3CHTO  H126 1081   6.309   0.281   2.932 -0.6920  0.7490 -0.6183
    3CHTO   O41 1082   6.125   0.190   2.866 -0.2490  0.9858  0.4285
    3CHTO   C64 1083   6.047   0.318   2.847 -0.0249 -0.0407  0.4729
    3CHTO  H121 1084   6.066   0.383   2.935  3.4085 -0.1662 -0.0790
    3CHTO   C71 1085   5.898   0.276   2.854 -0.4669 -0.7208 -0.3086
    3CHTO   O47 1086   5.823   0.393   2.887  0.2104  0.2671 -0.2593
    3CHTO  H104 1087   5.812   0.406   2.979 -1.2928 -0.3306 -0.3383
    3CHTO   O34 1088   6.351   0.066   2.882 -1.4094  0.3056 -0.4185
    3CHTO   C49 1089   6.492   0.001   2.878 -0.1719 -0.3984  0.3104
    3CHTO   H91 1090   6.545   0.039   2.792 -0.7341 -2.5346 -1.0209
    3CHTO   C47 1091   6.479  -0.153   2.849  0.0174 -0.0348 -0.1500
    3CHTO   H89 1092   6.476  -0.166   2.739 -1.4238  2.0066 -0.3851
    3CHTO   O33 1093   6.358  -0.197   2.909 -0.6864  0.1571 -0.2332
    3CHTO   H70 1094   6.369  -0.290   2.915  0.2193  0.2595 -0.1439
    3CHTO   C45 1095   6.615  -0.227   2.899  0.0649  0.1488  0.0397
    3CHTO   H87 1096   6.595  -0.247   3.006 -1.5607  0.5306 -0.1782
    3CHTO    N8 1097   6.633  -0.356   2.828 -0.5290  0.5361  0.2123
    3CHTO   H75 1098   6.738  -0.371   2.805 -1.2050 -1.1220 -1.8981
    3CHTO   H76 1099   6.593  -0.439   2.883 -0.8097 -1.0509 -2.3347
    3CHTO   C43 1100   6.751  -0.132   2.903  0.3387 -0.0570 -0.3770
    3CHTO   H85 1101   6.831  -0.190   2.950 -1.2156 -0.5340  1.7206
    3CHTO   O29 1102   6.718  -0.015   2.983 -0.0936  0.2201 -0.4250
    3CHTO   C50 1103   6.582   0.024   3.001  0.5163 -0.4628 -0.0684
    3CHTO   H92 1104   6.540  -0.026   3.090 -0.3147 -0.7559 -0.6124
    3CHTO   C54 1105   6.580   0.173   3.042 -0.2692 -0.5034 -0.4688
    3CHTO   O36 1106   6.640   0.255   2.936 -0.0456  0.0897  0.1869
    3CHTO   H72 1107   6.725   0.226   2.909 -0.4478  1.0153 -2.2503
    3CHTO   O27 1108   6.788  -0.072   2.776  0.6607 -0.6838  0.0297
    3CHTO   C37 1109   6.889  -0.076   2.670 -0.4511  0.1385 -0.9000
    3CHTO   H79 1110   6.983  -0.056   2.724 -1.1662  2.8937 -0.5745
    3CHTO   C38 1111   6.909  -0.219   2.612  0.2180 -0.3101 -0.1199
    3CHTO   H80 1112   6.811  -0.262   2.588 -0.5408  1.5956 -0.5354
    3CHTO   O31 1113   6.979  -0.298   2.718  0.1913 -0.4236  0.8478
    3CHTO   H68 1114   6.915  -0.331   2.778  0.9385  0.4391  2.1501
    3CHTO   C39 1115   6.984  -0.216   2.472  0.3861 -0.1510  0.7139
    3CHTO   H81 1116   7.087  -0.188   2.497  1.0190  0.1889 -2.1447
    3CHTO    N7 1117   6.983  -0.349   2.414 -0.0764  0.4791  0.7268
    3CHTO   H73 1118   6.938  -0.346   2.316 -0.0189 -1.6715  0.6030
    3CHTO   H74 1119   7.079  -0.399   2.403  0.0335  0.5372  1.4302
    3CHTO   C40 1120   6.935  -0.099   2.384 -0.2832  0.0358 -0.6199
    3CHTO   H82 1121   6.830  -0.120   2.362 -1.2931  4.2812 -0.3637
    3CHTO   O26 1122   6.950   0.026   2.455  0.0721 -0.1156 -0.0233
    3CHTO   C41 1123   6.860   0.041   2.575 -1.0604 -0.1213 -0.3247
    3CHTO   H83 1124   6.752   0.028   2.555 -0.8087 -1.5677 -0.8569
    3CHTO   C52 1125   6.888   0.175   2.648  0.4109  0.6828  0.2827
    3CHTO   O35 1126   6.853   0.280   2.573  0.5205 -0.4563 -0.4901
    3CHTO   H71 1127   6.912   0.351   2.588 -2.5184  2.2129 -0.6329
    3CHTO   O28 1128   7.008  -0.083   2.263 -0.6664  0.0302 -0.7445
    3CHTO   C42 1129   6.980   0.015   2.157 -0.5268  0.7091  0.1216
    3CHTO   H84 1130   7.031  -0.012   2.065  0.5444 -0.0233  0.9109
    3CHTO   C44 1131   7.042   0.157   2.189  0.4246  0.0031  0.4076
    3CHTO   H86 1132   6.989   0.196   2.276 -0.6027  0.4811 -0.4269
    3CHTO   O32 1133   7.178   0.137   2.226  0.3029  0.3252  0.2869
    3CHTO   H69 1134   7.208   0.199   2.291  0.3928  0.0826  0.4785
    3CHTO   C48 1135   7.022   0.264   2.074  0.4895  0.2069 -0.9269
    3CHTO   H90 1136   7.070   0.220   1.986 -1.2484  0.0842 -1.8449
    3CHTO    N9 1137   7.092   0.396   2.101 -0.6362  0.1713 -0.0387
    3CHTO   H77 1138   7.020   0.456   2.155  0.5032  1.8109 -0.3095
    3CHTO   H78 1139   7.184   0.388   2.158  0.5632 -1.0363 -2.1116
    3CHTO   C51 1140   6.867   0.279   2.040 -0.3503 -0.9001 -0.1332
    3CHTO   H93 1141   6.816   0.330   2.122 -1.4339 -0.3408 -1.1467
    3CHTO   O30 1142   6.805   0.152   2.011 -0.1325  0.0162  0.0470
    3CHTO   C46 1143   6.830   0.025   2.115 -0.1351 -0.0268 -0.1139
    3CHTO   H88 1144   6.766   0.053   2.199 -0.8548 -0.5128 -0.4931
    3CHTO   C53 1145   6.782  -0.106   2.053  0.7155 -0.1583 -0.2430
    3CHTO   O72 1146   6.647  -0.104   2.012 -0.5233 -0.0221 -0.5256
    3CHTO  H199 1147   6.624  -0.181   1.963  0.5569 -0.8203  0.1908
    3CHTO   O22 1148   6.855   0.349   1.922 -0.4647 -0.4593  0.1463
    3CHTO   C31 1149   6.754   0.446   1.884  0.1468  0.3024 -0.0131
    3CHTO   H59 1150   6.659   0.393   1.902  0.0643  0.1460 -0.8820
    3CHTO   C29 1151   6.756   0.581   1.962  0.0399  0.4447  0.6777
    3CHTO   H57 1152   6.862   0.609   1.958  0.4667 -1.0511  1.1760
    3CHTO   O21 1153   6.719   0.560   2.099  0.5452  0.7915 -0.2801
    3CHTO   H37 1154   6.785   0.591   2.159  1.0376 -2.7274  1.1151
    3CHTO   C27 1155   6.667   0.691   1.891  0.1532  0.4666  0.5866
    3CHTO   H55 1156   6.561   0.662   1.904  0.7597 -1.0636  2.2708
    3CHTO    N5 1157   6.689   0.829   1.947  0.2370 -0.5063 -0.1262
    3CHTO   H43 1158   6.671   0.824   2.053 -1.8814  0.4867 -0.4121
    3CHTO   H44 1159   6.785   0.858   1.906  0.7788 -1.8329  0.1957
    3CHTO   C25 1160   6.687   0.685   1.735  0.0090 -0.4804  0.5769
    3CHTO   H53 1161   6.795   0.699   1.718  0.3544 -0.2531  2.7900
    3CHTO   O17 1162   6.657   0.554   1.683  0.3569 -0.4268 -0.2261
    3CHTO   C32 1163   6.757   0.457   1.722 -0.3120  0.8861 -0.2446
    3CHTO   H60 1164   6.859   0.486   1.697 -0.3618  0.2361 -1.2271
    3CHTO   C36 1165   6.737   0.322   1.651 -0.3764 -0.5700  0.2890
    3CHTO   O25 1166   6.856   0.237   1.663 -0.1540 -0.2830 -0.1016
    3CHTO   H40 1167   6.841   0.173   1.596 -0.7729  0.8448 -1.0722
    3CHTO   O15 1168   6.611   0.776   1.661  0.3226 -0.2660 -0.1820
    3CHTO   C19 1169   6.505   0.790   1.564  0.2362 -0.3228 -0.0831
    3CHTO   H47 1170   6.529   0.713   1.488 -1.9511  1.0743 -2.2553
    3CHTO   C20 1171   6.362   0.747   1.598 -0.1970  0.0202 -0.3759
    3CHTO   H48 1172   6.326   0.804   1.685 -1.5633  0.1826 -1.0469
    3CHTO   O19 1173   6.352   0.607   1.635 -0.8183 -0.2358 -0.0865
    3CHTO   H35 1174   6.406   0.551   1.582  1.7197  0.0050  2.1119
    3CHTO   C21 1175   6.255   0.764   1.478  0.8927 -0.1263 -0.0794
    3CHTO   H49 1176   6.273   0.693   1.397  1.7621 -0.2386  0.2140
    3CHTO    N4 1177   6.113   0.747   1.532  0.7349  0.2228 -0.1723
    3CHTO   H41 1178   6.098   0.782   1.632 -2.0270 -2.5659  0.4818
    3CHTO   H42 1179   6.054   0.804   1.462  2.3365  0.3546 -1.4597
    3CHTO   C22 1180   6.272   0.914   1.431  0.2024  0.1295 -0.3023
    3CHTO   H50 1181   6.243   0.987   1.506 -2.3811 -1.9237  0.7553
    3CHTO   O14 1182   6.407   0.944   1.389 -0.6146 -0.3304 -0.5923
    3CHTO   C23 1183   6.505   0.932   1.492  0.2048  0.3740 -0.5627
    3CHTO   H51 1184   6.479   1.015   1.559 -1.6883  0.5173 -1.4671
    3CHTO   C34 1185   6.649   0.962   1.441  0.4038  0.2016  0.4263
    3CHTO   O23 1186   6.649   1.093   1.382 -0.0248 -0.0541  0.6639
    3CHTO   H38 1187   6.733   1.106   1.343  0.5672 -0.5192  1.7544
    3CHTO   O16 1188   6.184   0.936   1.311 -0.4515  1.1960 -0.0581
    3CHTO   C24 1189   6.141   1.097   1.294  0.6397  0.3608 -0.4418
    3CHTO   H52 1190   6.204   1.165   1.350  1.1950  1.0485 -1.8667
    3CHTO   C26 1191   5.996   1.121   1.352  0.0388 -0.2177  0.0463
    3CHTO   H54 1192   5.928   1.048   1.304 -0.8201  0.0196  0.8880
    3CHTO   O20 1193   5.989   1.075   1.491  0.3432 -0.7562 -0.3209
    3CHTO   H36 1194   6.008   1.146   1.550 -1.7007 -0.5370  0.1372
    3CHTO   C30 1195   5.945   1.270   1.329  0.1892 -0.6310  0.7350
    3CHTO   H58 1196   6.013   1.342   1.379  1.2113 -1.0814  0.0221
    3CHTO    N6 1197   5.806   1.289   1.383 -0.0505 -0.1596 -0.4824
    3CHTO   H45 1198   5.736   1.341   1.320 -0.1149  3.2705  2.2458
    3CHTO   H46 1199   5.815   1.337   1.479 -1.4092 -0.5357 -0.1589
    3CHTO   C33 1200   5.969   1.301   1.179  0.0858 -0.1393 -1.5108
    3CHTO   H61 1201   5.899   1.240   1.118 -2.6052  0.1684  1.1612
    3CHTO   O18 1202   6.103   1.276   1.130  0.0816  0.4540 -0.1463
    3CHTO   C28 1203   6.147   1.142   1.143  0.1154  0.3013  0.0317
    3CHTO   H56 1204   6.075   1.082   1.087  0.9343  0.8519 -1.6295
    3CHTO   C35 1205   6.285   1.144   1.081  1.3064  0.0128 -0.5152
    3CHTO   O24 1206   6.337   1.007   1.058  0.6375 -0.3645 -1.0353
    3CHTO   H39 1207   6.398   0.990   1.127 -2.3521  1.3878  2.2262
    3CHTO    O9 1208   5.932   1.437   1.150 -0.1468  0.4071 -0.3344
    3CHTO   C13 1209   6.050   1.564   1.186 -0.3695  0.5367  0.1871
    3CHTO   H26 1210   6.110   1.524   1.271  0.1737  1.0036  0.0296
    3CHTO   C11 1211   5.987   1.690   1.228  0.1180  0.0196 -0.3440
    3CHTO   H24 1212   5.935   1.663   1.321 -0.8988  1.0201 -0.6026
    3CHTO    O8 1213   5.886   1.731   1.134  0.6000  0.9059 -0.1973
    3CHTO    H3 1214   5.870   1.823   1.144 -1.6016  0.5333  0.1260
    3CHTO    C9 1215   6.087   1.802   1.265  0.0173 -0.1379  0.1634
    3CHTO   H22 1216   6.151   1.759   1.344 -1.4831  0.1581  1.5681
    3CHTO    N2 1217   6.039   1.930   1.320  0.2139  0.6791  0.2021
    3CHTO   H10 1218   5.974   1.910   1.404  1.1830 -0.1908  0.7579
    3CHTO   H11 1219   6.125   1.993   1.334  1.2031 -0.4122 -0.8868
    3CHTO    C7 1220   6.180   1.834   1.138  0.0588 -0.0917 -0.0188
    3CHTO   H20 1221   6.256   1.907   1.173  1.2808 -1.1724 -0.3862
    3CHTO    O4 1222   6.238   1.712   1.086 -0.0851  0.4512  0.4387
    3CHTO   C14 1223   6.159   1.594   1.073  0.0618  0.4741 -0.4681
    3CHTO   H27 1224   6.227   1.507   1.082  1.4558  1.6340  0.3966
    3CHTO   C18 1225   6.090   1.579   0.938  0.1873  0.4695 -0.3535
    3CHTO   O13 1226   6.181   1.534   0.831  0.2456  0.5673  0.1437
    3CHTO    H7 1227   6.257   1.589   0.826  2.7684 -2.8250 -0.7384
    3CHTO    O2 1228   6.101   1.905   1.013  0.4017  0.3729  0.0499
    3CHTO    C1 1229   6.168   1.998   0.920 -0.4942  0.6837 -0.3938
    3CHTO   H14 1230   6.117   1.999   0.821 -0.0574  2.6236 -0.6234
    3CHTO    C2 1231   6.316   1.953   0.901 -0.1169  0.8043 -0.3786
    3CHTO   H15 1232   6.363   1.965   0.999 -0.6108 -1.9605  0.2576
    3CHTO    O6 1233   6.314   1.817   0.852 -0.4199 -0.2039  0.5814
    3CHTO    H1 1234   6.263   1.761   0.908 -2.0418 -0.3023 -0.9334
    3CHTO    C3 1235   6.392   2.052   0.802 -0.6330 -0.4261  0.0642
    3CHTO   H16 1236   6.326   2.057   0.714 -0.6884 -0.9683  0.0709
    3CHTO    N1 1237   6.540   2.018   0.775  0.4390 -0.4772 -0.5444
    3CHTO    H8 1238   6.551   1.914   0.748  1.3709 -0.5341  0.0174
    3CHTO    H9 1239   6.615   2.042   0.849  0.4149 -0.0579 -0.6542
    3CHTO    C4 1240   6.379   2.193   0.870 -0.0315 -0.2385 -0.3094
    3CHTO   H17 1241   6.430   2.196   0.966  1.7774 -0.6286 -1.2469
    3CHTO    O1 1242   6.243   2.232   0.887  0.8990 -0.1374  0.2742
    3CHTO    C5 1243   6.174   2.147   0.982  0.3467  0.1406  0.4688
    3CHTO   H18 1244   6.222   2.141   1.079  0.1319  0.2279  0.5789
    3CHTO   C16 1245   6.031   2.204   1.000  0.3334 -0.3047  0.0577
    3CHTO   O11 1246   6.041   2.315   1.085  0.5723 -0.8232  0.6164
    3CHTO    H5 1247   5.966   2.321   1.141 -0.1693 -2.9726 -0.1065
    3CHTO    O3 1248   6.441   2.302   0.798 -0.2587  0.3014  0.5512
    3CHTO    C6 1249   6.469   2.432   0.858 -0.1443 -0.1477  0.7039
    3CHTO   H19 1250   6.422   2.447   0.956 -0.2654  0.1166  0.6048
    3CHTO    C8 1251   6.621   2.460   0.869 -0.8722  0.1489  0.3266
    3CHTO   H21 1252   6.672   2.431   0.777  0.4455 -0.6411  1.2723
    3CHTO    O7 1253   6.667   2.367   0.969  0.0820 -0.2450 -0.4431
    3CHTO    H2 1254   6.653   2.278   0.944 -0.2413  0.3633 -2.4803
    3CHTO   C12 1255   6.663   2.615   0.901 -0.0589  0.1603 -0.1795
    3CHTO   H25 1256   6.644   2.639   1.007  1.4763  2.8410 -0.4599
    3CHTO    N3 1257   6.814   2.625   0.879 -0.0358  0.4565 -0.0558
    3CHTO   H12 1258   6.835   2.707   0.813  0.4143  0.6280  0.3005
    3CHTO   H13 1259   6.865   2.642   0.973 -0.6688 -0.1276  0.4053
    3CHTO   C15 1260   6.576   2.707   0.816  0.1083 -0.4505  0.7451
    3CHTO   H28 1261   6.611   2.722   0.714 -1.1154  1.8298  0.6261
    3CHTO   O10 1262   6.589   2.840   0.878  0.1699 -0.3501  0.0305
    3CHTO    H4 1263   6.671   2.881   0.857  0.6367 -0.6559  1.2219
    3CHTO    O5 1264   6.436   2.676   0.826  0.2805 -0.4445 -0.3466
    3CHTO   C10 1265   6.423   2.546   0.767 -0.4178  0.0161  0.2768
    3CHTO   H23 1266   6.483   2.542   0.676 -2.4137  3.3815 -1.2833
    3CHTO   C17 1267   6.278   2.538   0.725  0.2156 -0.0687  0.1288
    3CHTO   O12 1268   6.244   2.601   0.601 -0.4033  0.1501  0.0815
    3CHTO    H6 1269   6.242   2.690   0.630 -1.5576  0.4438 -0.8313
    4CHTO  H203 1270   5.519   7.027  -0.003 -0.9398  0.4377  0.1523
    4CHTO   O82 1271   5.596   7.052   0.045 -0.4538 -0.3230 -0.2292
    4CHTO  C123 1272   5.569   7.166   0.123 -0.5404 -0.1536  0.1496
    4CHTO  H227 1273   5.492   7.142   0.198 -0.7013 -0.6623 -0.1806
    4CHTO   O77 1274   5.696   7.184   0.201  0.1130 -0.7920 -0.3078
    4CHTO  C118 1275   5.730   7.315   0.265  0.6741  0.9662  0.0946
    4CHTO  H222 1276   5.654   7.337   0.342  0.6562  0.3820  0.2477
    4CHTO  C125 1277   5.864   7.306   0.345 -0.1875 -0.7020  0.3080
    4CHTO   O84 1278   5.867   7.202   0.452  0.1269  0.3800 -0.3259
    4CHTO  H205 1279   5.795   7.220   0.510  0.8409  1.2431  0.3212
    4CHTO  C114 1280   5.729   7.415   0.144 -0.1506 -0.2011  0.3000
    4CHTO  H218 1281   5.792   7.370   0.067 -1.3794  2.2670 -2.2232
    4CHTO  C116 1282   5.583   7.430   0.095  0.1186  0.3741  0.4952
    4CHTO  H220 1283   5.513   7.458   0.176 -0.7644 -0.6428  0.0884
    4CHTO   O79 1284   5.580   7.542   0.005  0.2924 -0.4306 -0.3801
    4CHTO  H201 1285   5.491   7.573   0.004  0.2617 -0.5251 -0.8234
    4CHTO  C120 1286   5.537   7.292   0.035  0.0797 -0.0802 -0.5133
    4CHTO  H224 1287   5.600   7.280  -0.055  2.4650  1.0372  0.9386
    4CHTO   N21 1288   5.395   7.295   0.004 -0.1594 -0.2894  0.4537
    4CHTO  H211 1289   5.343   7.363   0.069 -0.8308 -0.4438  0.0807
    4CHTO  H212 1290   5.353   7.197   0.021  2.1007 -0.9424  2.4975
    4CHTO   O75 1291   5.790   7.538   0.188 -0.0122  0.3643  0.5308
    4CHTO  C112 1292   5.889   7.603   0.068 -0.2067 -0.3274 -0.4372
    4CHTO  H216 1293   5.862   7.564  -0.031 -0.9900 -1.1387  0.0865
    4CHTO   O73 1294   6.028   7.568   0.099  0.2383  0.0420  0.0773
    4CHTO  C113 1295   6.127   7.617   0.009  0.0354  0.6124  0.5498
    4CHTO  H217 1296   6.092   7.593  -0.094 -1.6243  1.1168  0.9869
    4CHTO  C124 1297   6.254   7.532   0.038  0.0849  0.0854 -0.1633
    4CHTO   O83 1298   6.358   7.577  -0.054  0.4298 -0.4036 -0.0515
    4CHTO  H204 1299   6.397   7.498  -0.086 -1.4289 -1.3613 -0.0158
    4CHTO  C109 1300   6.129   7.766   0.026 -0.1574 -0.6794  0.2134
    4CHTO  H213 1301   6.134   7.784   0.134  0.3054 -0.7158  0.2024
    4CHTO  C110 1302   5.993   7.818  -0.034  0.1161  0.9347  0.1066
    4CHTO  H214 1303   5.988   7.784  -0.137  3.1911  2.2823 -0.5624
    4CHTO   O78 1304   6.004   7.961  -0.043 -0.4433 -0.1104 -0.0342
    4CHTO  H200 1305   6.006   8.004   0.040 -1.2440 -0.7931  0.3461
    4CHTO  C111 1306   5.883   7.765   0.057  0.3772  0.2691 -0.0115
    4CHTO  H215 1307   5.902   7.803   0.158  0.4147  1.7723 -0.5821
    4CHTO   N19 1308   5.751   7.812   0.019  0.3611 -0.5235  0.2940
    4CHTO  H207 1309   5.682   7.797   0.100 -0.0133 -1.4678 -0.1999
    4CHTO  H208 1310   5.722   7.775  -0.078  0.4121  0.3034 -0.0396
    4CHTO   O74 1311   6.250   7.838  -0.036  0.5094 -0.4956  0.1835
    4CHTO  C115 1312   6.289   7.976   0.036  0.2185 -0.2894  0.0583
    4CHTO  H219 1313   6.203   8.024   0.085  1.2440 -0.2836  1.8944
    4CHTO   O76 1314   6.387   7.955   0.155  0.3814 -0.1625  0.1966
    4CHTO  C122 1315   6.503   7.882   0.125 -0.0825  0.2315  0.5716
    4CHTO  H226 1316   6.479   7.779   0.099  0.9725  0.2978 -0.7085
    4CHTO  C126 1317   6.587   7.880   0.258 -0.2437  0.3006 -0.0539
    4CHTO   O85 1318   6.620   8.016   0.304  0.1451  0.6961  0.2578
    4CHTO  H206 1319   6.654   8.062   0.230 -2.9295  1.2123 -0.9174
    4CHTO  C121 1320   6.585   7.948   0.005  0.5258  0.1879 -0.2752
    4CHTO  H225 1321   6.686   7.977   0.042 -0.4175  1.0496  1.6531
    4CHTO   O81 1322   6.605   7.860  -0.106 -0.0055  0.3975 -0.4817
    4CHTO  H202 1323   6.698   7.852  -0.122 -0.3536 -0.2715 -2.3807
    4CHTO  C119 1324   6.518   8.077  -0.053  0.3530  0.2945  0.2805
    4CHTO  H223 1325   6.536   8.161   0.014 -1.5257  0.2044  0.9284
    4CHTO  C117 1326   6.360   8.056  -0.082 -0.2164 -0.1658 -0.0725
    4CHTO  H221 1327   6.340   7.996  -0.171  1.7897 -1.4388  0.3110
    4CHTO   N20 1328   6.287   8.188  -0.100 -0.1335 -0.3470  0.2539
    4CHTO  H209 1329   6.268   8.202  -0.205  0.8415 -1.2668 -0.0517
    4CHTO  H210 1330   6.206   8.202  -0.030 -1.9463  0.9987 -2.0832
    4CHTO   O80 1331   6.587   8.129  -0.189  0.4099  0.4918  0.2069
    4CHTO  C103 1332   6.647   8.272  -0.201 -0.1782  0.1676 -0.4857
    4CHTO  H190 1333   6.573   8.340  -0.160  0.8189  3.3834 -3.7911
    4CHTO  C101 1334   6.775   8.288  -0.125 -0.1154 -0.2404 -0.0173
    4CHTO  H188 1335   6.848   8.211  -0.149  0.2291  0.3333 -0.8278
    4CHTO   O68 1336   6.754   8.271   0.036 -0.1223  0.3126 -0.1657
    4CHTO  H168 1337   6.828   8.298   0.086  0.4492 -2.2355  0.4379
    4CHTO   C99 1338   6.854   8.424  -0.172 -0.1450  0.1097  0.4429
    4CHTO  H186 1339   6.802   8.510  -0.126 -0.9840 -1.1840  1.9549
    4CHTO   N17 1340   6.993   8.438  -0.115 -0.3918 -0.5826 -0.0194
    4CHTO  H174 1341   7.022   8.542  -0.108  2.2574 -1.3271  0.4687
    4CHTO  H175 1342   7.009   8.386  -0.022 -1.9507 -0.2710  0.4412
    4CHTO   C97 1343   6.852   8.444  -0.321 -0.3947 -0.4902  0.4401
    4CHTO  H184 1344   6.917   8.375  -0.378  1.7895  1.7585  0.1042
    4CHTO   O64 1345   6.718   8.439  -0.365  0.1542  0.1849 -0.1269
    4CHTO  C104 1346   6.656   8.307  -0.352 -0.2154 -0.1622  0.0590
    4CHTO  H191 1347   6.713   8.228  -0.403  0.3855 -0.2744  0.8975
    4CHTO  C108 1348   6.520   8.313  -0.421 -0.4146  0.0803  0.4984
    4CHTO   O71 1349   6.455   8.439  -0.424  0.5004 -0.2099  0.1573
    4CHTO  H171 1350   6.511   8.504  -0.463  0.7236 -0.3516  0.2404
    4CHTO   O62 1351   6.883   8.582  -0.354 -0.0351  0.1990 -0.0718
    4CHTO   C91 1352   6.930   8.615  -0.488  0.0555  0.1362  0.3561
    4CHTO  H178 1353   6.924   8.527  -0.552  0.2647  1.2449 -1.2054
    4CHTO   C92 1354   7.089   8.643  -0.489 -0.7049 -0.3755 -1.1201
    4CHTO  H179 1355   7.104   8.733  -0.427  1.7423 -0.2912 -1.8090
    4CHTO   O66 1356   7.164   8.534  -0.426  0.8070  0.3201  0.5367
    4CHTO  H166 1357   7.254   8.559  -0.430  0.5315  1.3046  0.3963
    4CHTO   C93 1358   7.141   8.664  -0.634 -0.1576  0.1294 -0.3806
    4CHTO  H180 1359   7.143   8.564  -0.681 -0.0746  0.2020 -0.5323
    4CHTO   N16 1360   7.283   8.707  -0.640  0.2057 -0.1651  0.0762
    4CHTO  H172 1361   7.344   8.631  -0.593  0.2202  1.3432  2.5873
    4CHTO  H173 1362   7.283   8.799  -0.584  2.9928 -0.7835  1.2198
    4CHTO   C94 1363   7.044   8.750  -0.724 -0.3740 -0.8421  0.0540
    4CHTO  H181 1364   7.090   8.840  -0.765 -1.8054  0.1630  0.5900
    4CHTO   O61 1365   6.938   8.813  -0.646  0.2111 -0.0680  0.3369
    4CHTO   C95 1366   6.854   8.724  -0.563 -0.7774 -0.7429  0.6112
    4CHTO  H182 1367   6.802   8.787  -0.491 -0.8317  1.4905 -1.3115
    4CHTO  C106 1368   6.736   8.664  -0.649  0.3250 -0.5470 -0.0121
    4CHTO   O69 1369   6.689   8.770  -0.731 -0.0439 -0.0670  0.6535
    4CHTO  H169 1370   6.607   8.748  -0.770 -0.3587 -0.0592  1.3014
    4CHTO   O63 1371   6.991   8.672  -0.828  0.3536  0.4706 -0.5943
    4CHTO   C96 1372   7.094   8.642  -0.950  0.2243 -0.0360 -0.1769
    4CHTO  H183 1373   7.196   8.628  -0.913 -0.1561 -0.3872  0.7478
    4CHTO   C98 1374   7.098   8.756  -1.057 -0.4444 -0.0890 -0.1845
    4CHTO  H185 1375   6.994   8.788  -1.073 -0.4010  1.7174  2.7733
    4CHTO   O67 1376   7.161   8.870  -1.000 -0.1773 -0.6257 -0.3492
    4CHTO  H167 1377   7.169   8.936  -1.066 -0.6666 -2.7180 -2.5580
    4CHTO  C102 1378   7.176   8.712  -1.192 -0.0404  0.1170  0.5020
    4CHTO  H189 1379   7.277   8.688  -1.157 -0.3352  0.4643  1.6188
    4CHTO   N18 1380   7.191   8.819  -1.297  0.4515 -0.2789  0.8258
    4CHTO  H176 1381   7.252   8.781  -1.378  0.6327 -0.5698  1.0971
    4CHTO  H177 1382   7.250   8.896  -1.250  2.1816 -0.8731 -0.3498
    4CHTO  C105 1383   7.116   8.583  -1.246  0.0074  0.2434 -0.9156
    4CHTO  H192 1384   7.014   8.607  -1.276 -0.2043  1.5461  0.7616
    4CHTO   O65 1385   7.105   8.480  -1.145 -0.6056 -0.1812  0.1455
    4CHTO  C100 1386   7.050   8.514  -1.021 -0.2402  0.6763  0.0634
    4CHTO  H187 1387   6.940   8.511  -1.027 -0.2997  2.0989  0.2944
    4CHTO  C107 1388   7.082   8.390  -0.934 -0.3377  0.8020 -0.3948
    4CHTO   O70 1389   6.975   8.355  -0.838 -0.4569  0.1975  0.3096
    4CHTO  H170 1390   7.011   8.288  -0.782  0.5142 -1.0081 -1.7154
    4CHTO   O57 1391   7.206   8.514  -1.371 -0.4861  0.6415  0.3779
    4CHTO   C85 1392   7.139   8.502  -1.502 -0.2719 -0.3058 -0.3021
    4CHTO  H157 1393   7.105   8.603  -1.531 -4.3549 -1.4846  0.1107
    4CHTO   C83 1394   7.011   8.406  -1.487 -0.4806 -0.4871 -0.5853
    4CHTO  H155 1395   6.934   8.447  -1.422 -0.1271 -0.8006  0.0394
    4CHTO   O56 1396   7.054   8.288  -1.417 -0.0463  0.0448 -0.5768
    4CHTO  H135 1397   6.984   8.226  -1.409 -0.8356  1.2114  2.4722
    4CHTO   C81 1398   6.955   8.372  -1.627  0.2727  0.3452  0.1618
    4CHTO  H153 1399   6.933   8.470  -1.669  0.0985 -0.5826 -1.9819
    4CHTO   N14 1400   6.822   8.310  -1.615  0.1456 -0.3691  0.1822
    4CHTO  H141 1401   6.803   8.246  -1.699  1.3954 -0.3705 -0.1069
    4CHTO  H142 1402   6.825   8.252  -1.525 -0.0383  2.0577  1.7833
    4CHTO   C79 1403   7.059   8.307  -1.719 -0.2223 -0.6577  0.2956
    4CHTO  H151 1404   7.017   8.297  -1.818 -0.6936 -0.7329  0.5048
    4CHTO   O52 1405   7.168   8.402  -1.739  1.0166 -1.3570  0.0202
    4CHTO   C86 1406   7.233   8.438  -1.610  0.6544 -0.1681 -0.1694
    4CHTO  H158 1407   7.265   8.337  -1.577 -2.0899 -1.0574 -0.0974
    4CHTO   C90 1408   7.357   8.525  -1.634 -0.1252  0.5750 -0.4090
    4CHTO   O60 1409   7.461   8.457  -1.704  0.3586  0.2000 -0.0282
    4CHTO  H138 1410   7.546   8.484  -1.677  0.1225  1.3254 -0.3805
    4CHTO   O50 1411   7.108   8.172  -1.692  0.1744 -0.2217  0.7322
    4CHTO   C73 1412   7.166   8.090  -1.793  0.9216  0.0838  0.1947
    4CHTO  H145 1413   7.224   8.146  -1.868  1.6797 -0.4839  0.3540
    4CHTO   C74 1414   7.059   7.999  -1.870  0.2789  0.4893  0.3961
    4CHTO  H146 1415   6.995   8.070  -1.926  0.6343  0.4419 -0.0727
    4CHTO   O54 1416   7.129   7.921  -1.972  0.3948  0.2156 -0.2022
    4CHTO  H133 1417   7.220   7.939  -1.986  0.5877 -0.5284  0.0696
    4CHTO   C75 1418   6.976   7.906  -1.770  0.3339 -0.6504  0.4501
    4CHTO  H147 1419   6.929   7.974  -1.697 -2.2681 -1.0239 -0.7969
    4CHTO   N13 1420   6.865   7.825  -1.824  0.5103  0.2903  0.0654
    4CHTO  H139 1421   6.885   7.718  -1.823 -0.1007  0.1845  1.3215
    4CHTO  H140 1422   6.766   7.854  -1.793 -0.1587 -1.5583 -0.2899
    4CHTO   C76 1423   7.083   7.819  -1.685  0.5623 -0.4798 -0.5007
    4CHTO  H148 1424   7.124   7.741  -1.748 -0.3671 -0.7304 -0.8008
    4CHTO   O49 1425   7.189   7.910  -1.624 -0.1166 -0.3158 -0.2673
    4CHTO   C77 1426   7.260   7.986  -1.722  0.5628 -0.1647 -0.0021
    4CHTO  H149 1427   7.289   7.914  -1.798  2.3462  1.2671 -0.7300
    4CHTO   C88 1428   7.384   8.052  -1.662  0.1604  0.2026  0.3704
    4CHTO   O58 1429   7.473   7.953  -1.609 -0.4163 -0.5333 -0.1409
    4CHTO  H136 1430   7.523   7.987  -1.536 -1.0808  0.3927 -0.0982
    4CHTO   O51 1431   7.010   7.762  -1.556  0.2335  0.2450  0.1170
    4CHTO   C78 1432   7.063   7.607  -1.524  0.4464 -0.5758  0.6303
    4CHTO  H150 1433   7.028   7.568  -1.426 -2.7368 -1.1811 -0.6882
    4CHTO   C80 1434   7.224   7.606  -1.515  0.6960 -0.0942 -0.0628
    4CHTO  H152 1435   7.261   7.610  -1.620 -0.6182  0.7781 -0.5087
    4CHTO   O55 1436   7.267   7.721  -1.436 -0.2254  0.6489  0.1475
    4CHTO  H134 1437   7.235   7.705  -1.349 -0.1292  0.5180  0.1595
    4CHTO   C84 1438   7.263   7.467  -1.451  0.4270  0.6591  0.4176
    4CHTO  H156 1439   7.205   7.452  -1.360 -1.2762  0.6151 -0.6655
    4CHTO   N15 1440   7.407   7.455  -1.417  0.0579 -0.7525  0.1499
    4CHTO  H143 1441   7.431   7.396  -1.331  0.7144 -0.6359  0.0493
    4CHTO  H144 1442   7.445   7.552  -1.396  0.0021 -1.0684  1.7153
    4CHTO   C87 1443   7.223   7.350  -1.543 -0.1460 -0.2712  0.0104
    4CHTO  H159 1444   7.288   7.345  -1.631  1.1100  1.6457  0.7979
    4CHTO   O53 1445   7.056   7.371  -1.592 -0.4617 -0.0387  0.1839
    4CHTO   C82 1446   7.027   7.502  -1.628 -0.0668  0.3900 -0.7878
    4CHTO  H154 1447   7.072   7.513  -1.726  1.2554 -0.0838 -0.2409
    4CHTO   C89 1448   6.869   7.508  -1.658  0.2151  0.3749  0.4962
    4CHTO   O59 1449   6.840   7.461  -1.788 -0.3863 -0.9878  0.5607
    4CHTO  H137 1450   6.816   7.529  -1.848  0.7976 -1.0031  0.0616
    4CHTO   O45 1451   7.229   7.219  -1.457 -0.0218 -0.1147  0.0247
    4CHTO   C67 1452   7.176   7.107  -1.532  0.1087  0.4991  0.1168
    4CHTO  H124 1453   7.155   7.120  -1.638 -0.4647 -0.9735  0.0377
    4CHTO   C65 1454   7.277   6.984  -1.523  0.5895  0.2361  0.2701
    4CHTO  H122 1455   7.372   7.018  -1.565  1.1280 -2.1146 -0.4886
    4CHTO   O44 1456   7.237   6.875  -1.609  0.3047 -0.0421  0.0895
    4CHTO  H102 1457   7.312   6.820  -1.625 -1.0207 -2.1386  1.0073
    4CHTO   C63 1458   7.306   6.957  -1.375 -0.1010  0.2179  0.2293
    4CHTO  H120 1459   7.338   7.050  -1.327  1.3589  0.6903 -1.5999
    4CHTO   N11 1460   7.422   6.864  -1.350  0.3527  0.5595  0.6175
    4CHTO  H108 1461   7.496   6.905  -1.285  1.7465 -0.6706 -0.1698
    4CHTO  H109 1462   7.458   6.830  -1.445 -0.2494 -2.6925  1.4721
    4CHTO   C61 1463   7.170   6.920  -1.299  0.5884  0.5851  0.3728
    4CHTO  H118 1464   7.187   6.948  -1.194 -0.4974  0.2383  0.6538
    4CHTO   O40 1465   7.056   7.001  -1.341 -0.5221 -0.7013 -0.0334
    4CHTO   C68 1466   7.046   7.064  -1.468 -0.5599 -0.6017  0.4005
    4CHTO  H125 1467   6.991   7.158  -1.450  1.1350  0.8385 -1.7132
    4CHTO   C72 1468   6.961   6.986  -1.573  0.2958  0.0424  0.1407
    4CHTO   O48 1469   6.821   6.981  -1.560  0.0941  0.1918  0.0412
    4CHTO  H105 1470   6.783   7.065  -1.542  0.6464  0.4004  0.2534
    4CHTO   O38 1471   7.124   6.784  -1.318  0.8523 -0.3737 -0.4408
    4CHTO   C55 1472   7.054   6.732  -1.202  0.7915 -0.3253  0.4464
    4CHTO  H112 1473   7.010   6.817  -1.147  1.2849 -1.1758  2.1971
    4CHTO   C56 1474   7.147   6.646  -1.105  0.1795 -0.7144  0.4420
    4CHTO  H113 1475   7.193   6.573  -1.172  2.4120  1.2913 -0.2762
    4CHTO   O42 1476   7.263   6.722  -1.059 -0.4362 -0.6222  0.2552
    4CHTO  H100 1477   7.290   6.781  -1.127  0.9125 -0.4310  0.9324
    4CHTO   C57 1478   7.068   6.600  -0.981  0.2743  0.3133 -0.3215
    4CHTO  H114 1479   7.053   6.684  -0.913  1.5621  0.8309 -0.6598
    4CHTO   N10 1480   7.147   6.498  -0.909  0.2998  0.1323 -0.0918
    4CHTO  H106 1481   7.222   6.537  -0.843  1.3424  0.4261 -1.4328
    4CHTO  H107 1482   7.195   6.440  -0.986  0.4272 -0.1734  0.2164
    4CHTO   C58 1483   6.927   6.540  -1.024 -0.1503 -0.3015 -0.2957
    4CHTO  H115 1484   6.934   6.434  -1.056 -0.8265 -1.2144  2.4222
    4CHTO   O37 1485   6.862   6.617  -1.126  0.2366  0.4091  0.0312
    4CHTO   C59 1486   6.937   6.640  -1.239 -0.3886  0.3308  0.2801
    4CHTO  H116 1487   6.960   6.546  -1.291  1.5234  0.4600  0.8547
    4CHTO   C70 1488   6.842   6.703  -1.333  0.5370 -0.0322 -0.6893
    4CHTO   O46 1489   6.732   6.613  -1.359 -0.4853 -0.2797  0.2856
    4CHTO  H103 1490   6.753   6.523  -1.373  2.4839  0.5258 -0.8309
    4CHTO   O39 1491   6.830   6.563  -0.890  0.0926 -0.8138 -0.5317
    4CHTO   C60 1492   6.695   6.517  -0.911  0.2629 -0.2575 -0.6637
    4CHTO  H117 1493   6.652   6.579  -0.989 -2.6821 -1.2777  0.0625
    4CHTO   C62 1494   6.684   6.371  -0.965 -0.3935 -0.2403 -0.3126
    4CHTO  H119 1495   6.740   6.367  -1.060  1.4846 -0.9890  0.8078
    4CHTO   O43 1496   6.756   6.286  -0.867  0.1313  0.2534  0.1479
    4CHTO  H101 1497   6.794   6.213  -0.912 -1.6012 -0.3613 -0.3452
    4CHTO   C66 1498   6.538   6.314  -0.993  0.2115 -0.1006  0.6174
    4CHTO  H123 1499   6.492   6.379  -1.067 -0.7456  0.5344  1.7458
    4CHTO   N12 1500   6.531   6.179  -1.051  0.3902 -0.5399  0.5118
    4CHTO  H110 1501   6.524   6.097  -0.981 -1.8062 -2.2339 -1.6140
    4CHTO  H111 1502   6.610   6.160  -1.123 -1.2948  0.1378 -1.5849
    4CHTO   C69 1503   6.456   6.327  -0.864  0.7629  0.4728 -0.4316
    4CHTO  H126 1504   6.507   6.269  -0.783  1.6768  0.4876 -0.9881
    4CHTO   O41 1505   6.463   6.480  -0.813  0.2569 -0.3496  0.1473
    4CHTO   C64 1506   6.609   6.536  -0.779  0.1500  0.6938  0.3029
    4CHTO  H121 1507   6.656   6.476  -0.698 -1.9554 -1.6847 -0.1930
    4CHTO   C71 1508   6.585   6.680  -0.730 -0.1507 -0.2653  0.1500
    4CHTO   O47 1509   6.701   6.760  -0.721 -0.0781  0.0829  0.7912
    4CHTO  H104 1510   6.679   6.850  -0.736  2.3708  0.4209 -1.0114
    4CHTO   O34 1511   6.300   6.278  -0.885 -0.1631  0.3441 -0.4500
    4CHTO   C49 1512   6.166   6.338  -0.888 -0.3771  0.6941  0.1185
    4CHTO   H91 1513   6.142   6.380  -0.790  3.0633 -0.5288  1.5594
    4CHTO   C47 1514   6.061   6.234  -0.923  0.2600  0.0272 -0.6024
    4CHTO   H89 1515   5.959   6.273  -0.906 -0.4793 -1.1697 -2.1835
    4CHTO   O33 1516   6.067   6.119  -0.838 -0.0526 -0.8295  0.1540
    4CHTO   H70 1517   5.982   6.084  -0.817 -0.3235 -1.3131 -1.6870
    4CHTO   C45 1518   6.072   6.179  -1.070 -0.4510  0.3273  0.6554
    4CHTO   H87 1519   6.153   6.104  -1.074 -0.5524  0.3402 -3.0912
    4CHTO    N8 1520   5.953   6.109  -1.124  0.0345 -0.1869 -0.0388
    4CHTO   H75 1521   5.959   6.023  -1.189 -1.3111  0.2722 -0.7849
    4CHTO   H76 1522   5.871   6.171  -1.158 -1.5888 -1.7685  0.9337
    4CHTO   C43 1523   6.122   6.302  -1.172  0.5133  0.1045 -0.0358
    4CHTO   H85 1524   6.229   6.286  -1.162  0.6643  1.9894  1.5495
    4CHTO   O29 1525   6.082   6.430  -1.108  0.1228  0.5756 -0.2027
    4CHTO   C50 1526   6.155   6.458  -0.993 -0.8891  0.2318 -0.4476
    4CHTO   H92 1527   6.261   6.485  -1.008 -0.6730 -1.2566 -1.6265
    4CHTO   C54 1528   6.094   6.584  -0.938 -0.1239 -0.2022  0.0731
    4CHTO   O36 1529   6.119   6.702  -1.021 -0.4891 -0.4167 -1.0128
    4CHTO   H72 1530   6.185   6.749  -0.974 -0.0154 -0.5346 -1.5572
    4CHTO   O27 1531   6.098   6.285  -1.315  0.6248  0.2565  0.2197
    4CHTO   C37 1532   6.172   6.267  -1.438 -0.2224 -0.1638 -0.1860
    4CHTO   H79 1533   6.105   6.264  -1.525 -0.2815  2.2320 -0.2598
    4CHTO   C38 1534   6.261   6.392  -1.456 -0.4320  0.5469 -0.5470
    4CHTO   H80 1535   6.300   6.415  -1.356  1.2377 -1.6063 -0.6491
    4CHTO   O31 1536   6.166   6.494  -1.493 -0.2121  0.3527 -0.0489
    4CHTO   H68 1537   6.153   6.568  -1.437 -1.6428 -0.8443  1.2527
    4CHTO   C39 1538   6.377   6.356  -1.555  1.0571 -0.1792  0.3451
    4CHTO   H81 1539   6.354   6.316  -1.654  1.0430 -1.1196  0.7221
    4CHTO    N7 1540   6.469   6.479  -1.559 -0.6502  0.2815 -0.3217
    4CHTO   H73 1541   6.482   6.492  -1.665  0.6882  1.6347 -0.0072
    4CHTO   H74 1542   6.561   6.460  -1.505 -0.9727 -0.9398 -0.1844
    4CHTO   C40 1543   6.447   6.231  -1.504 -0.2341  1.1607  0.0488
    4CHTO   H82 1544   6.468   6.254  -1.399 -0.9013  1.3547  0.1420
    4CHTO   O26 1545   6.358   6.119  -1.522  0.2339 -0.1934  0.1863
    4CHTO   C41 1546   6.243   6.133  -1.428 -0.4189  0.4387 -0.5131
    4CHTO   H83 1547   6.284   6.130  -1.326 -1.6403 -1.2344 -0.0582
    4CHTO   C52 1548   6.147   6.011  -1.441  0.2972 -0.2616  0.1210
    4CHTO   O35 1549   6.210   5.901  -1.373  0.4698 -0.3266 -0.2536
    4CHTO   H71 1550   6.233   5.834  -1.435  2.4190 -0.1434  0.2405
    4CHTO   O28 1551   6.574   6.190  -1.562 -0.1713  0.0303  0.6616
    4CHTO   C42 1552   6.658   6.086  -1.487 -0.6268 -0.5223  0.2983
    4CHTO   H84 1553   6.735   6.057  -1.559  0.7678 -2.7123  2.5522
    4CHTO   C44 1554   6.580   5.957  -1.444  0.1598 -0.2534 -0.2485
    4CHTO   H86 1555   6.497   5.988  -1.381 -1.8091 -3.4583 -1.1289
    4CHTO   O32 1556   6.519   5.901  -1.563  0.4772 -0.0238  0.3605
    4CHTO   H69 1557   6.490   5.966  -1.624  0.5325  0.0667  0.4301
    4CHTO   C48 1558   6.667   5.852  -1.368  0.6355  0.0440 -0.2379
    4CHTO   H90 1559   6.742   5.815  -1.438  2.2364 -0.4127  1.6784
    4CHTO    N9 1560   6.587   5.725  -1.333 -0.3895  0.6115 -0.1243
    4CHTO   H77 1561   6.510   5.748  -1.261 -0.9748  0.6093 -0.7469
    4CHTO   H78 1562   6.649   5.646  -1.293 -0.4303  0.5854 -0.1122
    4CHTO   C51 1563   6.741   5.926  -1.257  0.4695 -0.0623 -0.0550
    4CHTO   H93 1564   6.659   5.967  -1.198  0.5601  0.1456 -0.0711
    4CHTO   O30 1565   6.830   6.029  -1.310 -0.1971 -0.7196  0.4656
    4CHTO   C46 1566   6.739   6.150  -1.366  0.3522  0.4427 -0.1680
    4CHTO   H88 1567   6.676   6.192  -1.288 -0.1131  1.1251 -0.8979
    4CHTO   C53 1568   6.843   6.259  -1.413  0.4041 -0.3699 -0.3772
    4CHTO   O72 1569   6.929   6.304  -1.308 -0.1287  0.3320  0.6679
    4CHTO  H199 1570   6.992   6.365  -1.342  1.8612 -3.1288 -2.3089
    4CHTO   O22 1571   6.836   5.845  -1.181  0.2142  0.0815 -0.0742
    4CHTO   C31 1572   6.864   5.882  -1.038  0.3889 -0.0444 -0.8249
    4CHTO   H59 1573   6.850   5.991  -1.027  0.3201 -0.1931  0.7010
    4CHTO   C29 1574   6.765   5.816  -0.943  0.4015  0.4582 -0.4439
    4CHTO   H57 1575   6.777   5.707  -0.948 -1.4858  0.1985  0.2596
    4CHTO   O21 1576   6.636   5.857  -0.981  0.0890  0.1807  0.3871
    4CHTO   H37 1577   6.606   5.796  -1.046  0.5950 -0.1997  0.5042
    4CHTO   C27 1578   6.791   5.848  -0.795  0.7550  0.4210  0.0942
    4CHTO   H55 1579   6.763   5.953  -0.774 -1.1546 -0.3399  1.5192
    4CHTO    N5 1580   6.699   5.771  -0.703  0.5089 -0.2993 -0.1272
    4CHTO   H43 1581   6.634   5.705  -0.757  0.6340 -0.0504 -0.5843
    4CHTO   H44 1582   6.635   5.844  -0.655 -0.2201 -0.5870 -0.6529
    4CHTO   C25 1583   6.945   5.819  -0.763  0.4116 -0.4780 -0.9772
    4CHTO   H53 1584   6.964   5.711  -0.755 -1.2427 -0.6012  2.1344
    4CHTO   O17 1585   7.032   5.890  -0.854 -0.5563  0.5244  0.1632
    4CHTO   C32 1586   7.015   5.851  -0.990  0.3405  0.1626 -0.0177
    4CHTO   H60 1587   7.028   5.742  -0.985  1.5326  0.3150  0.2945
    4CHTO   C36 1588   7.123   5.917  -1.090 -0.2441  0.4805  0.3562
    4CHTO   O25 1589   7.243   5.838  -1.069 -0.1315 -0.8795  0.2070
    4CHTO   H40 1590   7.270   5.805  -1.152 -0.9470 -1.6952  0.2599
    4CHTO   O15 1591   6.976   5.882  -0.604 -0.1319  0.0888 -0.1131
    4CHTO   C19 1592   7.014   6.017  -0.565  0.2367  0.6203  0.3629
    4CHTO   H47 1593   7.013   6.012  -0.455  2.8538 -0.7051  0.3525
    4CHTO   C20 1594   7.160   6.052  -0.604  0.2085 -0.3853  0.1636
    4CHTO   H48 1595   7.180   6.041  -0.712  1.7628 -0.0262  0.3990
    4CHTO   O19 1596   7.238   5.959  -0.527 -0.6910  0.1897 -0.2205
    4CHTO   H35 1597   7.214   5.968  -0.437  0.8249  0.2988  0.1881
    4CHTO   C21 1598   7.201   6.201  -0.572 -0.7886  0.0841  0.0437
    4CHTO   H49 1599   7.226   6.211  -0.466  1.8878  0.1595 -0.5376
    4CHTO    N4 1600   7.327   6.234  -0.647  0.3025 -0.5965  0.3850
    4CHTO   H41 1601   7.370   6.315  -0.588 -1.0013  0.5535 -0.2251
    4CHTO   H42 1602   7.399   6.154  -0.653 -0.2162 -0.9600 -1.0830
    4CHTO   C22 1603   7.092   6.308  -0.600  0.2225 -0.0112 -0.4669
    4CHTO   H50 1604   7.086   6.310  -0.709 -1.3787  0.5920 -0.3779
    4CHTO   O14 1605   6.967   6.257  -0.543  0.1970  0.4760  0.9184
    4CHTO   C23 1606   6.918   6.135  -0.602  0.1261  0.3403  0.2870
    4CHTO   H51 1607   6.908   6.146  -0.711 -1.2611 -1.0144  0.2701
    4CHTO   C34 1608   6.776   6.109  -0.539 -0.1550  0.2510 -0.0045
    4CHTO   O23 1609   6.673   6.212  -0.568  0.0570  0.2705  0.5358
    4CHTO   H38 1610   6.584   6.186  -0.550 -0.5434  1.6818 -0.3673
    4CHTO   O16 1611   7.117   6.432  -0.539 -0.0334  0.7115 -0.0906
    4CHTO   C24 1612   7.014   6.538  -0.545 -0.6661 -0.1352  0.6409
    4CHTO   H52 1613   6.934   6.515  -0.615 -0.0458  2.6136 -1.0435
    4CHTO   C26 1614   7.088   6.667  -0.582 -0.0293 -0.9757  0.8843
    4CHTO   H54 1615   7.146   6.650  -0.675 -0.3774 -0.8673  0.6480
    4CHTO   O20 1616   6.985   6.767  -0.608  0.2011 -0.8025  0.3163
    4CHTO   H36 1617   7.018   6.849  -0.640 -0.6132 -0.5432  0.1100
    4CHTO   C30 1618   7.177   6.726  -0.464 -0.5293 -0.0389 -0.0321
    4CHTO   H58 1619   7.141   6.829  -0.446 -0.2980  0.1164 -0.4584
    4CHTO    N6 1620   7.317   6.736  -0.507  0.3638  0.2332  0.1665
    4CHTO   H45 1621   7.361   6.835  -0.515  1.4436 -0.2667 -0.2071
    4CHTO   H46 1622   7.326   6.688  -0.604 -0.3354 -1.3469  0.8793
    4CHTO   C33 1623   7.160   6.647  -0.330 -0.1007 -0.1506 -0.5963
    4CHTO   H61 1624   7.205   6.548  -0.346  0.1260  0.0944 -1.4712
    4CHTO   O18 1625   7.016   6.630  -0.314 -0.4025  0.6167 -0.6437
    4CHTO   C28 1626   6.953   6.537  -0.401  0.1913  0.2301  0.0823
    4CHTO   H56 1627   6.967   6.438  -0.358  0.9052 -0.6662 -2.1424
    4CHTO   C35 1628   6.806   6.578  -0.404  0.1296 -0.3606  0.1074
    4CHTO   O24 1629   6.722   6.485  -0.460 -0.4514 -0.0436  0.1858
    4CHTO   H39 1630   6.634   6.507  -0.437 -0.6918  0.2923 -1.0102
    4CHTO    O9 1631   7.221   6.696  -0.207 -0.3239  0.3855  0.0237
    4CHTO   C13 1632   7.254   6.572  -0.089  0.0386 -0.5371 -0.3949
    4CHTO   H26 1633   7.346   6.514  -0.114  0.7876  1.5474 -2.6692
    4CHTO   C11 1634   7.131   6.478  -0.069 -0.0298  0.6386 -0.1233
    4CHTO   H24 1635   7.101   6.438  -0.167 -0.5364  1.9350 -0.5126
    4CHTO    O8 1636   7.022   6.551  -0.027 -0.0242  0.0504  0.1650
    4CHTO    H3 1637   7.023   6.567   0.065 -3.3967  0.7686  0.1487
    4CHTO    C9 1638   7.177   6.369   0.031  0.5780 -0.1689  0.7715
    4CHTO   H22 1639   7.253   6.313  -0.027 -1.7750 -2.4723 -0.2158
    4CHTO    N2 1640   7.075   6.266   0.047 -0.1635 -0.3963  0.1565
    4CHTO   H10 1641   7.111   6.174   0.092 -3.4010 -1.5263  0.5847
    4CHTO   H11 1642   6.988   6.304   0.099  0.3794  1.5712 -0.3387
    4CHTO    C7 1643   7.247   6.426   0.162 -0.3948 -0.4834 -0.3271
    4CHTO   H20 1644   7.352   6.389   0.154 -0.8997 -1.7516 -1.3101
    4CHTO    O4 1645   7.250   6.570   0.174  0.5160 -0.8240 -0.0724
    4CHTO   C14 1646   7.296   6.638   0.057  0.0681  0.1849 -0.0847
    4CHTO   H27 1647   7.406   6.632   0.070 -0.1541 -2.0424  1.0703
    4CHTO   C18 1648   7.250   6.790   0.076 -0.4939 -0.3030  0.0481
    4CHTO   O13 1649   7.322   6.835   0.192  0.2094  0.1404 -0.1828
    4CHTO    H7 1650   7.350   6.922   0.173  1.5029 -0.9279 -3.5193
    4CHTO    O2 1651   7.180   6.362   0.297  0.0189 -0.0644  0.0076
    4CHTO    C1 1652   7.275   6.370   0.404  0.0187 -0.2615 -0.4210
    4CHTO   H14 1653   7.347   6.453   0.387  0.7790 -1.2601 -2.2054
    4CHTO    C2 1654   7.356   6.227   0.438 -0.0697 -0.5085  0.5411
    4CHTO   H15 1655   7.272   6.156   0.438  0.0313 -0.6374 -0.6624
    4CHTO    O6 1656   7.442   6.193   0.324 -0.5511 -0.4001 -0.2885
    4CHTO    H1 1657   7.383   6.192   0.251 -1.7256 -0.7199  0.6507
    4CHTO    C3 1658   7.425   6.231   0.582  0.3754  0.3830 -0.0878
    4CHTO   H16 1659   7.507   6.304   0.578 -0.2886  1.2139  1.2955
    4CHTO    N1 1660   7.477   6.103   0.622  0.0690  0.3003 -0.0815
    4CHTO    H8 1661   7.537   6.062   0.542  0.5548  1.8364 -0.5102
    4CHTO    H9 1662   7.546   6.107   0.706  0.1878 -0.8321 -0.1187
    4CHTO    C4 1663   7.331   6.294   0.684 -0.5135  0.0376 -0.2919
    4CHTO   H17 1664   7.247   6.229   0.707 -0.8493  0.6546  0.2610
    4CHTO    O1 1665   7.265   6.417   0.646  0.0069 -0.4079  0.0770
    4CHTO    C5 1666   7.190   6.413   0.522  0.0485 -0.3041 -0.6039
    4CHTO   H18 1667   7.115   6.335   0.534  0.4301 -0.4257  1.1008
    4CHTO   C16 1668   7.111   6.544   0.492 -0.4727  0.3451 -0.0519
    4CHTO   O11 1669   7.203   6.659   0.473 -0.7100 -0.2993 -0.6930
    4CHTO    H5 1670   7.195   6.686   0.383 -1.5057  0.8092 -0.2883
    4CHTO    O3 1671   7.402   6.325   0.807  0.2735 -0.7558 -0.3629
    4CHTO    C6 1672   7.318   6.347   0.925 -0.9021 -0.1703  0.4736
    4CHTO   H19 1673   7.212   6.361   0.902 -0.5575 -0.8331 -1.5528
    4CHTO    C8 1674   7.332   6.230   1.028 -0.4460  0.2826 -0.1523
    4CHTO   H21 1675   7.440   6.218   1.043 -0.6692 -1.1994  0.3200
    4CHTO    O7 1676   7.292   6.107   0.972 -0.1284  0.5438 -0.1119
    4CHTO    H2 1677   7.276   6.038   1.034  2.1188  1.1117  1.1558
    4CHTO   C12 1678   7.266   6.263   1.163  0.5492 -0.1435  0.4518
    4CHTO   H25 1679   7.157   6.257   1.141  0.5284  3.2087 -0.6378
    4CHTO    N3 1680   7.301   6.163   1.279  0.0366  0.0882 -0.0933
    4CHTO   H12 1681   7.252   6.069   1.256  0.0830  0.3196 -1.1883
    4CHTO   H13 1682   7.408   6.152   1.290  0.1052  0.2953 -0.5332
    4CHTO   C15 1683   7.301   6.408   1.203  0.5763 -0.0564  0.4214
    4CHTO   H28 1684   7.394   6.417   1.259  0.0461  1.9873  1.0493
    4CHTO   O10 1685   7.193   6.455   1.290 -0.5738 -0.1703  0.1813
    4CHTO    H4 1686   7.216   6.456   1.381 -0.6099  0.6864  0.1919
    4CHTO    O5 1687   7.295   6.512   1.104 -0.0144 -0.0688  0.2628
    4CHTO   C10 1688   7.368   6.483   0.983  0.7706  0.8123 -0.5681
    4CHTO   H23 1689   7.477   6.481   0.993  0.6617  2.0959  0.9768
    4CHTO   C17 1690   7.358   6.602   0.884 -0.3953 -0.2200 -0.6830
    4CHTO   O12 1691   7.224   6.644   0.881  0.3117 -0.0939  0.2704
    4CHTO    H6 1692   7.202   6.702   0.951 -0.2458 -2.3209  2.0145
    5CHTO  H203 1693   6.775   4.135   2.428 -0.3043 -0.2054 -0.0172
    5CHTO   O82 1694   6.763   4.042   2.422  0.3694 -0.2875 -0.0436
    5CHTO  C123 1695   6.672   3.987   2.516 -0.5628 -0.8875 -0.0590
    5CHTO  H227 1696   6.683   4.030   2.616 -1.3958  1.3791 -0.8986
    5CHTO   O77 1697   6.542   4.032   2.464  0.0369 -0.9341 -0.2835
    5CHTO  C118 1698   6.433   4.012   2.561 -0.0057  0.0143  0.2080
    5CHTO  H222 1699   6.461   4.062   2.655  3.2287 -0.3840 -0.4873
    5CHTO  C125 1700   6.312   4.070   2.495 -0.5639 -0.0692  0.1781
    5CHTO   O84 1701   6.337   4.203   2.445  0.1055 -0.1106  0.3199
    5CHTO  H205 1702   6.293   4.210   2.363 -1.0225 -0.0729  0.9160
    5CHTO  C114 1703   6.417   3.863   2.606  0.3053 -0.2413 -0.2635
    5CHTO  H218 1704   6.379   3.805   2.522 -0.7721  2.1515 -1.4826
    5CHTO  C116 1705   6.558   3.803   2.638  0.6931  0.5264 -0.1181
    5CHTO  H220 1706   6.598   3.854   2.729  1.7224 -0.5584  0.0502
    5CHTO   O79 1707   6.540   3.667   2.670  0.2400 -0.5742  0.4581
    5CHTO  H201 1708   6.525   3.625   2.588  2.4299 -0.6583  0.0796
    5CHTO  C120 1709   6.665   3.830   2.523  0.0430  0.2332 -0.5230
    5CHTO  H224 1710   6.619   3.782   2.434  0.0269  0.8870 -0.8709
    5CHTO   N21 1711   6.798   3.766   2.554  0.5718  0.0431  0.5804
    5CHTO  H211 1712   6.802   3.733   2.657  1.8134  0.9737  0.8404
    5CHTO  H212 1713   6.810   3.691   2.478  1.3690  1.1562 -0.4028
    5CHTO   O75 1714   6.330   3.866   2.719  0.4076  0.4961 -0.0595
    5CHTO  C112 1715   6.247   3.726   2.732  0.1999 -0.1846  0.7250
    5CHTO  H216 1716   6.308   3.634   2.731  0.4856  0.0128 -0.8787
    5CHTO   O73 1717   6.151   3.723   2.617  0.8582 -0.1837  0.2251
    5CHTO  C113 1718   6.076   3.602   2.608  0.0904 -0.1511  0.7694
    5CHTO  H217 1719   6.144   3.515   2.615  0.2623 -0.1241 -0.4527
    5CHTO  C124 1720   6.001   3.605   2.472  0.2223 -0.5168  0.2417
    5CHTO   O83 1721   6.095   3.598   2.368 -0.5954 -0.1970 -0.3856
    5CHTO  H204 1722   6.143   3.679   2.372  0.5870 -0.8742 -0.5306
    5CHTO  C109 1723   5.979   3.601   2.728  0.4347  0.0743  0.1041
    5CHTO  H213 1724   5.918   3.692   2.718 -0.2954 -0.7179 -3.4343
    5CHTO  C110 1725   6.061   3.606   2.859 -0.0537 -0.1866  0.0591
    5CHTO  H214 1726   6.117   3.513   2.870  0.6975 -0.0121 -1.9918
    5CHTO   O78 1727   5.963   3.609   2.972 -0.3220  0.0474  0.1212
    5CHTO  H200 1728   6.003   3.582   3.053 -1.7072 -0.8603  0.5143
    5CHTO  C111 1729   6.159   3.725   2.867  0.2736  0.0416 -0.8524
    5CHTO  H215 1730   6.101   3.819   2.866  1.0404  0.5686  1.2214
    5CHTO   N19 1731   6.238   3.729   2.996 -0.3031 -0.1113  0.1061
    5CHTO  H207 1732   6.323   3.662   2.994  0.5421  0.9734 -1.3190
    5CHTO  H208 1733   6.178   3.735   3.086 -3.0800  2.7714 -1.8310
    5CHTO   O74 1734   5.890   3.490   2.719 -0.4885 -0.4198 -0.4569
    5CHTO  C115 1735   5.739   3.510   2.696 -0.8377 -0.9509  0.7562
    5CHTO  H219 1736   5.711   3.615   2.705 -0.1200 -0.7585  0.7851
    5CHTO   O76 1737   5.703   3.467   2.536  0.3340  0.0531  0.3318
    5CHTO  C122 1738   5.719   3.325   2.523 -0.0463  0.4386 -0.6461
    5CHTO  H226 1739   5.825   3.299   2.526  0.0222  0.3716 -2.8969
    5CHTO  C126 1740   5.663   3.270   2.385 -0.1422  0.4958  0.2150
    5CHTO   O85 1741   5.762   3.283   2.271  0.3614 -0.4455  0.0280
    5CHTO  H206 1742   5.723   3.346   2.213 -1.0619  0.0314  1.4643
    5CHTO  C121 1743   5.656   3.236   2.646  0.3749 -0.3061 -0.0324
    5CHTO  H225 1744   5.583   3.168   2.597  1.0733 -1.1787  0.1276
    5CHTO   O81 1745   5.763   3.161   2.699 -0.1094  0.0986  0.3073
    5CHTO  H202 1746   5.812   3.205   2.766 -1.0714  1.6334  0.0252
    5CHTO  C119 1747   5.571   3.327   2.746  0.0945 -0.0037  0.2904
    5CHTO  H223 1748   5.492   3.377   2.689  0.0460 -1.0333 -0.5492
    5CHTO  C117 1749   5.661   3.429   2.810  0.3071 -0.2857 -0.0750
    5CHTO  H221 1750   5.743   3.398   2.875  0.8576 -0.7336 -0.9722
    5CHTO   N20 1751   5.583   3.529   2.896  0.0972 -0.4187 -0.0773
    5CHTO  H209 1752   5.536   3.603   2.832 -0.2683 -0.9746 -0.4510
    5CHTO  H210 1753   5.648   3.579   2.966 -0.2154  0.6464 -0.5309
    5CHTO   O80 1754   5.485   3.247   2.855 -0.0719 -0.8014  0.2051
    5CHTO  C103 1755   5.401   3.129   2.809  0.4408 -0.1301 -0.3041
    5CHTO  H190 1756   5.391   3.126   2.700  1.3292 -1.8225 -0.3452
    5CHTO  C101 1757   5.444   2.991   2.858 -0.8537 -0.0219 -0.2262
    5CHTO  H188 1758   5.449   2.982   2.967 -1.9657  1.8566 -0.0062
    5CHTO   O68 1759   5.595   2.963   2.807  0.0279  0.1809  0.2434
    5CHTO  H168 1760   5.662   2.954   2.873  1.8030 -1.2538 -1.6907
    5CHTO   C99 1761   5.345   2.873   2.815  0.9088  0.3659 -0.9007
    5CHTO  H186 1762   5.346   2.868   2.704  0.6603 -0.3227 -0.8780
    5CHTO   N17 1763   5.381   2.740   2.871 -0.2513 -0.0032 -0.4169
    5CHTO  H174 1764   5.373   2.727   2.978 -2.1060 -1.6125 -0.7346
    5CHTO  H175 1765   5.456   2.685   2.816  2.1961  0.7266  2.1091
    5CHTO   C97 1766   5.201   2.912   2.857  0.7936  0.5074  0.5660
    5CHTO  H184 1767   5.192   2.898   2.966  0.3946  0.9750  0.5905
    5CHTO   O64 1768   5.164   3.045   2.818 -0.5869  0.2024 -0.2767
    5CHTO  C104 1769   5.250   3.155   2.870  0.0419 -0.4380  0.0931
    5CHTO  H191 1770   5.256   3.158   2.979  2.9069  0.4846 -0.0474
    5CHTO  C108 1771   5.193   3.294   2.830 -0.4546 -0.1506  0.1487
    5CHTO   O71 1772   5.063   3.291   2.889 -0.7359  0.1132  0.8436
    5CHTO  H171 1773   5.006   3.358   2.854  0.5407  0.7290 -0.1156
    5CHTO   O62 1774   5.105   2.828   2.785 -0.2959 -0.0828  0.8422
    5CHTO   C91 1775   4.972   2.838   2.834 -0.0503  0.4088  0.3229
    5CHTO  H178 1776   4.970   2.892   2.928 -1.8781  2.3904 -0.8176
    5CHTO   C92 1777   4.932   2.691   2.856  0.1945  0.4085  0.2063
    5CHTO  H179 1778   5.011   2.639   2.912 -0.1197 -2.1788 -1.6348
    5CHTO   O66 1779   4.823   2.697   2.942  0.3516  0.3744  0.4438
    5CHTO  H166 1780   4.837   2.755   3.015 -0.0346  0.2430  0.6258
    5CHTO   C93 1781   4.895   2.611   2.722  1.1834  0.4019  0.5338
    5CHTO  H180 1782   4.836   2.522   2.749  1.9706 -0.7899 -1.5491
    5CHTO   N16 1783   5.015   2.556   2.646 -0.5327 -0.2407  0.2424
    5CHTO  H172 1784   5.093   2.630   2.655 -1.3699  0.5527  1.1622
    5CHTO  H173 1785   5.054   2.471   2.700  4.0568  1.2423 -0.5701
    5CHTO   C94 1786   4.805   2.701   2.624  0.3522 -0.0753 -0.3462
    5CHTO  H181 1787   4.862   2.723   2.533  0.9910 -1.6228 -0.3439
    5CHTO   O61 1788   4.769   2.828   2.681 -0.6125  0.0983  0.1099
    5CHTO   C95 1789   4.874   2.910   2.727  0.1346  0.3215 -0.7859
    5CHTO  H182 1790   4.944   2.934   2.647 -0.6722 -0.8924 -1.8727
    5CHTO  C106 1791   4.822   3.046   2.776  0.4165 -0.9624 -0.4069
    5CHTO   O69 1792   4.744   3.042   2.893  0.7000 -0.7196 -0.2926
    5CHTO  H169 1793   4.802   3.012   2.960  0.5503  1.6315  0.9352
    5CHTO   O63 1794   4.670   2.629   2.587  0.0143  0.3169  0.0001
    5CHTO   C96 1795   4.628   2.646   2.433  0.0600 -0.2249 -0.5410
    5CHTO  H183 1796   4.708   2.697   2.378 -1.3242  3.4972  0.7113
    5CHTO   C98 1797   4.504   2.735   2.407 -0.1579  0.0800  0.4278
    5CHTO  H185 1798   4.420   2.693   2.465 -2.4276  0.0443 -2.7389
    5CHTO   O67 1799   4.534   2.868   2.460  0.1310  0.0413  0.2002
    5CHTO  H167 1800   4.489   2.884   2.540 -0.1247  1.2445 -0.1780
    5CHTO  C102 1801   4.467   2.737   2.248  0.3162  0.1783  0.1255
    5CHTO  H189 1802   4.557   2.771   2.194  0.3877 -0.3483 -0.0905
    5CHTO   N18 1803   4.352   2.829   2.207  0.0562  0.3819  0.2425
    5CHTO  H176 1804   4.270   2.805   2.273  0.1469  0.1952  0.2866
    5CHTO  H177 1805   4.382   2.931   2.229  1.5544 -0.4064  1.9918
    5CHTO  C105 1806   4.443   2.594   2.193 -0.3491  0.0892  0.1449
    5CHTO  H192 1807   4.338   2.570   2.181  0.2975 -2.2339 -1.2353
    5CHTO   O65 1808   4.516   2.493   2.259  0.1875 -0.3933 -0.1265
    5CHTO  C100 1809   4.603   2.505   2.375 -1.1854  0.0209  0.0191
    5CHTO  H187 1810   4.562   2.438   2.452  0.1942 -0.3781  0.4336
    5CHTO  C107 1811   4.745   2.444   2.326 -0.8134  0.4085  0.2584
    5CHTO   O70 1812   4.747   2.301   2.290  0.1591 -0.5079 -0.0483
    5CHTO  H170 1813   4.675   2.286   2.231  0.1954  0.6681 -0.4049
    5CHTO   O57 1814   4.498   2.613   2.029  0.0663 -0.5869  0.1252
    5CHTO   C85 1815   4.480   2.501   1.941 -0.0520  0.2198  0.2599
    5CHTO  H157 1816   4.385   2.451   1.968  0.8866 -0.9369  1.5075
    5CHTO   C83 1817   4.571   2.374   1.962  0.1930 -0.3660  0.6392
    5CHTO  H155 1818   4.554   2.325   2.059  2.5452 -1.4341  0.5496
    5CHTO   O56 1819   4.704   2.434   1.978 -0.2212 -0.0879  0.1277
    5CHTO  H135 1820   4.759   2.372   2.021 -0.3168  0.2541  0.7486
    5CHTO   C81 1821   4.552   2.270   1.853  0.2524  0.4763  0.2878
    5CHTO  H153 1822   4.446   2.245   1.854 -0.0083  1.5433  2.9446
    5CHTO   N14 1823   4.618   2.140   1.892 -0.4422 -0.1009  0.1443
    5CHTO  H141 1824   4.689   2.110   1.818  1.3408  2.9688  0.5389
    5CHTO  H142 1825   4.551   2.061   1.919  0.0727 -0.7692 -0.5419
    5CHTO   C79 1826   4.596   2.335   1.713 -1.2264 -0.6153  0.3838
    5CHTO  H151 1827   4.567   2.269   1.632  1.5009 -0.8266 -0.4808
    5CHTO   O52 1828   4.521   2.461   1.690 -0.2026  0.3456 -0.4391
    5CHTO   C86 1829   4.479   2.555   1.796 -0.2100  0.2427  0.0340
    5CHTO  H158 1830   4.559   2.631   1.783 -0.6778  0.3750 -2.3350
    5CHTO   C90 1831   4.345   2.630   1.776 -0.6517 -0.1686  0.1268
    5CHTO   O60 1832   4.342   2.680   1.642  0.6165 -0.5759  0.7107
    5CHTO  H138 1833   4.298   2.762   1.644  2.0260  0.2085  0.4353
    5CHTO   O50 1834   4.735   2.359   1.709  0.1108 -0.2318 -0.4140
    5CHTO   C73 1835   4.807   2.391   1.592  0.2205 -0.4558  0.2941
    5CHTO  H145 1836   4.747   2.433   1.510 -1.1358 -0.5679  1.2201
    5CHTO   C74 1837   4.872   2.258   1.548 -0.2656  0.5322  0.3882
    5CHTO  H146 1838   4.789   2.187   1.544 -1.6746  2.2084 -0.4225
    5CHTO   O54 1839   4.910   2.286   1.411 -0.3000  0.3773  0.3289
    5CHTO  H133 1840   4.834   2.268   1.359 -1.0617  0.3361  1.4480
    5CHTO   C75 1841   4.987   2.207   1.645 -0.0072 -0.5170  0.2674
    5CHTO  H147 1842   4.940   2.169   1.737 -0.5501  1.3068  0.7553
    5CHTO   N13 1843   5.071   2.088   1.609  0.1572 -0.1618  0.0816
    5CHTO  H139 1844   5.148   2.063   1.680  1.0001 -0.7371 -1.0131
    5CHTO  H140 1845   5.121   2.102   1.515  1.6837  2.1294  1.2013
    5CHTO   C76 1846   5.076   2.336   1.675  0.1986  0.1629  0.3466
    5CHTO  H148 1847   5.140   2.363   1.590  2.4311 -0.2727  1.8478
    5CHTO   O49 1848   5.003   2.457   1.726  0.6677 -0.3954  0.2001
    5CHTO   C77 1849   4.912   2.500   1.629 -0.1327  0.3400 -0.7291
    5CHTO  H149 1850   4.970   2.525   1.540  0.9146  1.8366  0.3435
    5CHTO   C88 1851   4.841   2.624   1.681  0.3758 -0.1520 -0.6042
    5CHTO   O58 1852   4.941   2.736   1.695 -0.2256  0.6789  0.0875
    5CHTO  H136 1853   5.009   2.716   1.755 -0.7095  0.5578  0.5946
    5CHTO   O51 1854   5.170   2.307   1.819 -0.7458  0.0489 -0.4554
    5CHTO   C78 1855   5.261   2.426   1.844  0.4820  0.2510  0.9195
    5CHTO  H150 1856   5.235   2.516   1.785  0.1689 -1.4319 -1.6281
    5CHTO   C80 1857   5.400   2.381   1.804  0.2589 -0.4614  0.0776
    5CHTO  H152 1858   5.416   2.281   1.849 -0.2249  0.1813  1.7126
    5CHTO   O55 1859   5.401   2.369   1.662 -0.3398  0.0317 -0.2605
    5CHTO  H134 1860   5.416   2.281   1.633 -2.5402 -0.9095  1.3312
    5CHTO   C84 1861   5.509   2.484   1.862 -0.2613  0.0974  0.8744
    5CHTO  H156 1862   5.512   2.571   1.796  2.0789 -1.1146 -0.7216
    5CHTO   N15 1863   5.647   2.418   1.843 -0.0567 -0.3806 -0.6753
    5CHTO  H143 1864   5.633   2.317   1.810  2.3551 -0.6817 -0.8245
    5CHTO  H144 1865   5.692   2.474   1.764 -2.9658  2.5971 -0.3827
    5CHTO   C87 1866   5.487   2.534   2.009  0.5704  0.5892  0.0799
    5CHTO  H159 1867   5.514   2.457   2.081 -1.8423  0.0475  0.4223
    5CHTO   O53 1868   5.332   2.573   2.022  0.0499  0.0499  0.4512
    5CHTO   C82 1869   5.246   2.462   1.992  0.6810  0.4973  0.1154
    5CHTO  H154 1870   5.276   2.373   2.046  0.1298  0.1768 -0.0970
    5CHTO   C89 1871   5.096   2.499   2.034  0.4892 -0.2610 -0.1269
    5CHTO   O59 1872   4.998   2.392   2.015  0.2154 -0.4092 -0.2643
    5CHTO  H137 1873   4.920   2.403   2.065  0.3276  1.9251 -0.5296
    5CHTO   O45 1874   5.585   2.659   2.034 -0.2860 -0.1171  0.3016
    5CHTO   C67 1875   5.655   2.654   2.157 -0.1194  0.2091 -0.2180
    5CHTO  H124 1876   5.660   2.552   2.195 -1.0859  0.0112 -0.6042
    5CHTO   C65 1877   5.796   2.721   2.138 -0.1268 -0.1756  0.3435
    5CHTO  H122 1878   5.808   2.743   2.032 -2.4693 -1.0229 -0.1100
    5CHTO   O44 1879   5.899   2.629   2.193  0.4436  0.3231 -0.0979
    5CHTO  H102 1880   5.901   2.544   2.153 -1.8860 -0.5654  1.5752
    5CHTO   C63 1881   5.809   2.860   2.205  0.4356 -0.4021 -0.0244
    5CHTO  H120 1882   5.733   2.922   2.158  0.7677  0.4062  0.5069
    5CHTO   N11 1883   5.929   2.944   2.166 -0.8460 -0.7142 -0.3629
    5CHTO  H108 1884   6.010   2.900   2.220  1.7811  1.1064 -2.7094
    5CHTO  H109 1885   5.908   3.046   2.192  1.6208 -0.4724  0.8014
    5CHTO   C61 1886   5.785   2.849   2.356 -0.4101  0.0256  0.5524
    5CHTO  H118 1887   5.764   2.952   2.388  0.8440  0.4048  0.1862
    5CHTO   O40 1888   5.663   2.766   2.379 -0.2593  0.5925 -0.0410
    5CHTO   C68 1889   5.575   2.736   2.270 -0.2867  0.2266  0.0269
    5CHTO  H125 1890   5.528   2.830   2.235 -3.3303  0.7094  4.8899
    5CHTO   C72 1891   5.458   2.652   2.331  0.3884 -0.2615  0.8468
    5CHTO   O48 1892   5.386   2.740   2.419 -0.2071  0.4822  0.6208
    5CHTO  H105 1893   5.321   2.697   2.470  0.4121 -0.5230  0.5852
    5CHTO   O38 1894   5.898   2.795   2.430  0.4409 -0.4873  0.4118
    5CHTO   C55 1895   5.898   2.839   2.567 -0.1646  0.2357  0.0848
    5CHTO  H112 1896   5.798   2.878   2.594 -0.6878 -1.6769  1.0003
    5CHTO   C56 1897   6.011   2.947   2.593 -0.5293 -0.1365  0.8269
    5CHTO  H113 1898   6.101   2.892   2.563 -1.5354 -1.3537 -0.0625
    5CHTO   O42 1899   6.009   3.060   2.502  0.0045 -0.3275  0.0397
    5CHTO  H100 1900   5.922   3.085   2.479  0.2970 -0.6687 -1.5008
    5CHTO   C57 1901   6.033   2.995   2.745  0.1905  0.1675  0.7505
    5CHTO  H114 1902   5.940   3.050   2.764 -0.6984 -1.4077  1.0448
    5CHTO   N10 1903   6.162   3.071   2.758  0.2085 -0.0435  0.0905
    5CHTO  H106 1904   6.159   3.137   2.672 -0.4243 -1.7285 -1.2018
    5CHTO  H107 1905   6.252   3.012   2.754  0.4076  0.1137  1.7749
    5CHTO   C58 1906   6.035   2.866   2.833  0.1729  0.1906 -0.0179
    5CHTO  H115 1907   6.127   2.807   2.815  0.0838  0.0151  0.1036
    5CHTO   O37 1908   5.917   2.781   2.798  0.0159 -0.0687 -0.4039
    5CHTO   C59 1909   5.930   2.722   2.671 -0.3255 -0.0018 -0.5943
    5CHTO  H116 1910   6.027   2.673   2.661  0.1917  0.7580  0.5134
    5CHTO   C70 1911   5.825   2.617   2.648  0.1952  0.7797  0.7330
    5CHTO   O46 1912   5.839   2.495   2.724 -0.1962 -0.0819 -0.6703
    5CHTO  H103 1913   5.807   2.425   2.670  0.2975  1.0589 -2.5070
    5CHTO   O39 1914   6.012   2.907   3.001 -0.5192  0.3678  0.1650
    5CHTO   C60 1915   5.871   2.924   3.044 -0.3371  0.2428  0.4365
    5CHTO  H117 1916   5.795   2.926   2.966 -0.6327 -0.0093  0.7158
    5CHTO   C62 1917   5.831   2.805   3.126 -0.0737  0.0493 -0.2888
    5CHTO  H119 1918   5.854   2.721   3.057  0.3018  1.0652 -1.4313
    5CHTO   O43 1919   5.921   2.779   3.242  0.2902  0.1822  0.0909
    5CHTO  H101 1920   5.879   2.717   3.298  0.9167 -1.2810 -1.0304
    5CHTO   C66 1921   5.670   2.810   3.156 -0.6511  0.1801  0.1751
    5CHTO  H123 1922   5.617   2.823   3.062 -1.0295  1.0044  0.4963
    5CHTO   N12 1923   5.634   2.679   3.222  0.5507 -0.1447 -0.1129
    5CHTO  H110 1924   5.599   2.607   3.149  0.0205  1.6225 -1.6494
    5CHTO  H111 1925   5.682   2.642   3.311 -1.4021 -1.3192  0.4866
    5CHTO   C69 1926   5.640   2.931   3.245  0.7021 -0.4579  0.2114
    5CHTO  H126 1927   5.681   2.922   3.348  0.5725 -1.3505  0.1812
    5CHTO   O41 1928   5.687   3.067   3.173  0.4971 -1.0664 -0.1549
    5CHTO   C64 1929   5.845   3.059   3.131 -0.5257 -0.3637  0.2721
    5CHTO  H121 1930   5.907   3.058   3.223 -0.1195 -0.3376 -0.0018
    5CHTO   C71 1931   5.881   3.185   3.061  0.0065 -1.1166  0.6027
    5CHTO   O47 1932   5.829   3.299   3.121  0.3057 -0.3072 -0.1177
    5CHTO  H104 1933   5.897   3.342   3.170 -0.7224  1.2850 -0.0926
    5CHTO   O34 1934   5.479   2.946   3.259 -0.5138  0.5917  0.1775
    5CHTO   C49 1935   5.430   3.060   3.332  0.7099  0.0904 -0.2573
    5CHTO   H91 1936   5.519   3.117   3.358  1.0203 -0.2343 -0.6130
    5CHTO   C47 1937   5.361   2.998   3.462 -0.2084 -0.2653  0.1185
    5CHTO   H89 1938   5.327   3.083   3.525 -1.4303 -1.0143  0.4866
    5CHTO   O33 1939   5.458   2.912   3.528 -0.3827  0.0140  0.2959
    5CHTO   H70 1940   5.441   2.823   3.503  0.1849  0.3208 -1.2708
    5CHTO   C45 1941   5.231   2.924   3.413  0.3042  0.6657 -0.2781
    5CHTO   H87 1942   5.263   2.853   3.335 -0.1046 -0.5732  0.6550
    5CHTO    N8 1943   5.174   2.843   3.526  1.0320 -0.4408  0.2119
    5CHTO   H75 1944   5.143   2.913   3.601  0.7778 -0.9232  0.5651
    5CHTO   H76 1945   5.253   2.775   3.554  0.9031 -1.2266 -1.2454
    5CHTO   C43 1946   5.125   3.022   3.335 -0.5004 -0.0530  0.3622
    5CHTO   H85 1947   5.032   2.969   3.315 -0.2238 -1.0737  1.7270
    5CHTO   O29 1948   5.195   3.074   3.218 -0.1625  0.2185  0.4125
    5CHTO   C50 1949   5.325   3.135   3.234  0.2342 -0.1854  0.1852
    5CHTO   H92 1950   5.374   3.130   3.136 -0.7923 -3.0755 -0.2300
    5CHTO   C54 1951   5.320   3.288   3.256  0.1044 -0.0308 -0.5639
    5CHTO   O36 1952   5.237   3.351   3.162 -0.3434  0.3329  0.3484
    5CHTO   H72 1953   5.175   3.289   3.130 -0.4970 -0.1645  1.5767
    5CHTO   O27 1954   5.102   3.133   3.418  0.4500 -0.6191 -0.5780
    5CHTO   C37 1955   5.015   3.199   3.521 -0.0051 -0.0085  0.0992
    5CHTO   H79 1956   4.940   3.127   3.555 -0.8263  0.2035 -1.2199
    5CHTO   C38 1957   5.102   3.259   3.641  0.4019 -0.6834 -0.0511
    5CHTO   H80 1958   5.178   3.323   3.594  2.7816 -3.2265  0.1682
    5CHTO   O31 1959   5.166   3.144   3.699 -0.0617  0.0810  0.0960
    5CHTO   H68 1960   5.100   3.082   3.725 -0.0308  0.6286  1.5299
    5CHTO   C39 1961   5.010   3.330   3.743  0.1202 -0.5934  0.1020
    5CHTO   H81 1962   4.942   3.257   3.787 -0.6169 -0.1477 -0.2880
    5CHTO    N7 1963   5.087   3.383   3.855 -0.1640  0.6175 -0.2702
    5CHTO   H73 1964   5.073   3.489   3.872 -1.5607  0.6097 -1.3020
    5CHTO   H74 1965   5.063   3.333   3.947 -1.0874 -0.6901 -1.2190
    5CHTO   C40 1966   4.914   3.438   3.674  0.4134  0.3909  0.2955
    5CHTO   H82 1967   4.958   3.536   3.657 -1.1283  1.1291  0.4618
    5CHTO   O26 1968   4.857   3.384   3.552  0.0411  0.3197  0.6104
    5CHTO   C41 1969   4.944   3.320   3.453 -0.3420 -0.1816  0.0319
    5CHTO   H83 1970   5.019   3.394   3.422  0.1793 -1.1823 -1.1352
    5CHTO   C52 1971   4.871   3.274   3.320  0.0605 -0.3017 -0.1297
    5CHTO   O35 1972   4.972   3.245   3.207  0.9208 -0.1576 -0.0792
    5CHTO   H71 1973   5.022   3.321   3.183  0.4178 -0.2621 -1.5107
    5CHTO   O28 1974   4.806   3.463   3.765 -0.3383 -0.6040  0.2525
    5CHTO   C42 1975   4.695   3.374   3.827 -0.0092 -0.0969  0.5781
    5CHTO   H84 1976   4.615   3.444   3.851 -1.8039 -2.4725  1.8531
    5CHTO   C44 1977   4.743   3.311   3.971 -0.1030 -0.2284  0.0510
    5CHTO   H86 1978   4.850   3.293   3.965  0.0304  0.3967  0.6028
    5CHTO   O32 1979   4.729   3.425   4.061  0.0772 -0.3991  0.5309
    5CHTO   H69 1980   4.796   3.488   4.041  0.4997 -0.1387  2.6735
    5CHTO   C48 1981   4.656   3.183   4.016 -0.4037  0.4861 -1.0018
    5CHTO   H90 1982   4.562   3.223   4.052  0.0126 -0.3607  1.1135
    5CHTO    N9 1983   4.719   3.119   4.137  0.0884  0.3792 -0.4935
    5CHTO   H77 1984   4.764   3.021   4.125  1.3432  0.7412  1.1382
    5CHTO   H78 1985   4.776   3.184   4.201  1.1996 -0.3921 -0.6873
    5CHTO   C51 1986   4.631   3.087   3.886  0.1667  0.0649  0.0537
    5CHTO   H93 1987   4.727   3.058   3.843 -0.3492 -0.8896 -0.4659
    5CHTO   O30 1988   4.557   3.173   3.800 -0.3299 -0.6863 -0.0192
    5CHTO   C46 1989   4.637   3.268   3.731  0.0041  0.9604 -0.1776
    5CHTO   H88 1990   4.723   3.218   3.687 -1.8235  0.3603 -3.2269
    5CHTO   C53 1991   4.548   3.322   3.611  0.1219  0.3309 -0.0848
    5CHTO   O72 1992   4.522   3.228   3.503 -0.0933  0.2127 -0.1079
    5CHTO  H199 1993   4.578   3.153   3.508 -0.8242 -0.2834  0.7362
    5CHTO   O22 1994   4.549   2.972   3.908  0.1564 -0.2687 -0.1960
    5CHTO   C31 1995   4.565   2.848   3.827  0.0555  0.3261  0.1750
    5CHTO   H59 1996   4.476   2.788   3.854  0.6985 -1.1823 -0.9722
    5CHTO   C29 1997   4.562   2.869   3.673  0.0334  0.5233  0.6346
    5CHTO   H57 1998   4.637   2.946   3.649  1.3894 -0.4907  1.5927
    5CHTO   O21 1999   4.430   2.917   3.628 -0.3458  0.2022 -0.1154
    5CHTO   H37 2000   4.368   2.847   3.632 -0.5922  0.4223 -0.1079
    5CHTO   C27 2001   4.599   2.739   3.587  0.5717  0.3131 -0.3877
    5CHTO   H55 2002   4.516   2.667   3.603  0.9903  0.6292  3.5450
    5CHTO    N5 2003   4.614   2.773   3.443  0.0165  0.2702  0.4285
    5CHTO   H43 2004   4.670   2.865   3.446 -0.8761  0.8433 -0.2772
    5CHTO   H44 2005   4.513   2.789   3.408 -0.9367 -2.7120  1.6163
    5CHTO   C25 2006   4.717   2.663   3.651 -0.4534 -0.1426  0.6297
    5CHTO   H53 2007   4.809   2.724   3.644 -0.5650  0.1692  1.7205
    5CHTO   O17 2008   4.694   2.642   3.792 -0.1514  0.4970 -0.6245
    5CHTO   C32 2009   4.690   2.759   3.872  0.2174 -0.3635 -0.6211
    5CHTO   H60 2010   4.782   2.809   3.840  0.0159  0.3228 -0.1407
    5CHTO   C36 2011   4.688   2.709   4.020  0.2369 -0.1693 -0.1798
    5CHTO   O25 2012   4.813   2.641   4.050 -0.0493 -0.2640 -0.2712
    5CHTO   H40 2013   4.796   2.595   4.130 -0.6580  1.2850  0.5051
    5CHTO   O15 2014   4.762   2.526   3.579  0.4665  0.6513 -0.1299
    5CHTO   C19 2015   4.887   2.464   3.610  0.7071  0.0237 -0.1224
    5CHTO   H47 2016   4.944   2.538   3.668  0.8903  0.2873 -0.6333
    5CHTO   C20 2017   4.886   2.332   3.697  0.0847 -0.7125 -0.1515
    5CHTO   H48 2018   4.857   2.245   3.636  1.8992 -1.1169 -0.4666
    5CHTO   O19 2019   4.796   2.342   3.807 -0.1963 -0.3782  0.0041
    5CHTO   H35 2020   4.727   2.390   3.765 -1.8185 -1.5963  1.1969
    5CHTO   C21 2021   5.028   2.304   3.754 -1.1763  0.6819  0.7019
    5CHTO   H49 2022   5.065   2.384   3.819 -0.2099  1.1407 -0.4035
    5CHTO    N4 2023   5.040   2.175   3.833  0.3951 -0.3055 -0.5122
    5CHTO   H41 2024   5.136   2.176   3.882 -0.9106  3.7427  2.1865
    5CHTO   H42 2025   5.043   2.091   3.765  0.0673 -1.9545  1.4658
    5CHTO   C22 2026   5.125   2.296   3.633 -0.0953  0.4587 -0.3690
    5CHTO   H50 2027   5.111   2.200   3.583 -0.2102  1.3844 -2.1085
    5CHTO   O14 2028   5.113   2.396   3.528 -0.6029 -0.5649 -0.6681
    5CHTO   C23 2029   4.979   2.426   3.489  0.3241 -0.4214 -0.3107
    5CHTO   H51 2030   4.942   2.338   3.434  0.8224 -0.7914 -0.0596
    5CHTO   C34 2031   4.983   2.541   3.387  0.1868 -0.3484 -0.2574
    5CHTO   O23 2032   4.875   2.538   3.299 -1.1686 -0.3674  0.2617
    5CHTO   H38 2033   4.890   2.487   3.222 -0.4542  1.0168 -0.5543
    5CHTO   O16 2034   5.259   2.318   3.683 -0.4213  0.6459  0.3637
    5CHTO   C24 2035   5.383   2.274   3.573 -0.0238 -0.6905 -0.3408
    5CHTO   H52 2036   5.349   2.252   3.472  0.2711  0.7481 -0.7588
    5CHTO   C26 2037   5.448   2.145   3.630  0.0535 -0.0632  0.2401
    5CHTO   H54 2038   5.465   2.160   3.739 -0.3430 -2.9896  0.7225
    5CHTO   O20 2039   5.345   2.047   3.622  0.1748 -0.3218  0.0003
    5CHTO   H36 2040   5.385   1.967   3.650  0.4668  0.7050  2.6295
    5CHTO   C30 2041   5.577   2.092   3.565 -0.0718 -0.5493  0.1502
    5CHTO   H58 2042   5.546   2.055   3.466 -0.1785  0.5838 -0.2474
    5CHTO    N6 2043   5.632   1.970   3.636 -0.0398 -0.4855 -0.1930
    5CHTO   H45 2044   5.642   1.979   3.743  0.3058  0.1447 -0.2783
    5CHTO   H46 2045   5.725   1.937   3.593 -1.2605 -0.6593 -2.8160
    5CHTO   C33 2046   5.670   2.210   3.562  0.2762 -0.1809 -0.2950
    5CHTO   H61 2047   5.699   2.225   3.667  3.2644 -3.5142 -0.5774
    5CHTO   O18 2048   5.603   2.328   3.504 -0.1005 -0.1742  0.2065
    5CHTO   C28 2049   5.485   2.385   3.567 -0.1200 -0.3761 -0.2803
    5CHTO   H56 2050   5.494   2.425   3.668 -0.8243 -2.7856  0.7898
    5CHTO   C35 2051   5.445   2.493   3.473  0.6595 -0.1189  0.4917
    5CHTO   O24 2052   5.344   2.575   3.532 -0.0635  0.3948  0.4520
    5CHTO   H39 2053   5.273   2.590   3.472  0.9337 -0.0858 -0.8680
    5CHTO    O9 2054   5.800   2.186   3.498 -0.3044 -0.1190  0.3944
    5CHTO   C13 2055   5.801   2.166   3.322  0.4391 -0.2297  0.1514
    5CHTO   H26 2056   5.701   2.119   3.305  0.4007  0.1966 -0.8294
    5CHTO   C11 2057   5.918   2.076   3.265 -0.0887 -0.2790  0.7100
    5CHTO   H24 2058   5.914   1.982   3.322  0.5294 -0.9402 -0.3381
    5CHTO    O8 2059   6.044   2.128   3.301 -0.1031  0.7866  0.4158
    5CHTO    H3 2060   6.048   2.221   3.296 -2.5078  0.9287  0.3802
    5CHTO    C9 2061   5.880   2.053   3.115  0.3814  0.3859 -0.7201
    5CHTO   H22 2062   5.777   2.015   3.114 -0.1122  1.6962 -0.5029
    5CHTO    N2 2063   5.965   1.948   3.048  0.6382 -0.4512  0.2467
    5CHTO   H10 2064   6.058   1.987   3.008  0.1262  0.5469 -0.0141
    5CHTO   H11 2065   6.003   1.880   3.122  0.0372  1.9615  2.8581
    5CHTO    C7 2066   5.880   2.197   3.043  0.7860  1.1752  0.9881
    5CHTO   H20 2067   5.836   2.186   2.942 -1.0958  2.1701  1.6613
    5CHTO    O4 2068   5.815   2.309   3.106 -0.0924  0.4818  0.2850
    5CHTO   C14 2069   5.799   2.305   3.246  0.0930 -1.2269 -0.0600
    5CHTO   H27 2070   5.705   2.357   3.272  2.3269  3.2263 -0.2322
    5CHTO   C18 2071   5.912   2.409   3.284  0.0508 -0.6786  0.1099
    5CHTO   O13 2072   5.926   2.421   3.428 -0.4671  0.4402 -0.3976
    5CHTO    H7 2073   5.964   2.346   3.469 -1.6591  1.3184  2.4881
    5CHTO    O2 2074   6.042   2.241   3.010 -0.1860  0.0276  0.1210
    5CHTO    C1 2075   6.071   2.291   2.874 -0.0792 -0.4053 -0.7545
    5CHTO   H14 2076   5.979   2.336   2.832 -0.9330 -1.0661  0.3826
    5CHTO    C2 2077   6.134   2.191   2.768 -0.1040 -0.2521 -0.0150
    5CHTO   H15 2078   6.206   2.126   2.819 -0.1356  0.2238  0.6387
    5CHTO    O6 2079   6.034   2.108   2.716 -0.1126  0.4009 -0.3610
    5CHTO    H1 2080   6.011   2.042   2.778  0.3032  0.9086  0.3350
    5CHTO    C3 2081   6.211   2.277   2.655 -0.1656  0.1152  0.2650
    5CHTO   H16 2082   6.143   2.325   2.583  0.4711 -1.1848 -1.2274
    5CHTO    N1 2083   6.286   2.191   2.555 -0.3445  0.0792 -0.5923
    5CHTO    H8 2084   6.235   2.100   2.528  2.4494 -1.2230 -1.6884
    5CHTO    H9 2085   6.320   2.247   2.470 -0.2235 -0.6978 -1.0606
    5CHTO    C4 2086   6.302   2.385   2.717 -0.4714  0.4828  0.5169
    5CHTO   H17 2087   6.360   2.326   2.788  0.0035 -0.3125 -0.5323
    5CHTO    O1 2088   6.209   2.469   2.781  0.3443 -0.1022 -0.4206
    5CHTO    C5 2089   6.160   2.420   2.904 -0.1589  0.1421 -0.5433
    5CHTO   H18 2090   6.241   2.386   2.967 -0.6664  0.5364  0.3366
    5CHTO   C16 2091   6.071   2.528   2.980  0.1226  0.1605 -0.1106
    5CHTO   O11 2092   6.138   2.648   3.006  0.1180 -0.4485 -0.3606
    5CHTO    H5 2093   6.225   2.650   2.972 -0.3501  0.1705 -1.5539
    5CHTO    O3 2094   6.372   2.481   2.635 -0.3280  0.4832  0.2993
    5CHTO    C6 2095   6.505   2.517   2.686 -0.2238  0.0693  0.0531
    5CHTO   H19 2096   6.517   2.496   2.792  0.7134  0.9997  0.1450
    5CHTO    C8 2097   6.625   2.433   2.620  0.1000 -0.0999  0.0332
    5CHTO   H21 2098   6.617   2.446   2.512  2.0903 -1.2106 -0.2821
    5CHTO    O7 2099   6.599   2.300   2.652  0.2596 -0.2471  0.4998
    5CHTO    H2 2100   6.666   2.253   2.607  0.9547 -0.3195  1.5949
    5CHTO   C12 2101   6.753   2.495   2.684  0.1458 -0.1858  0.1303
    5CHTO   H25 2102   6.759   2.463   2.790 -0.3180 -0.1495  0.1683
    5CHTO    N3 2103   6.875   2.436   2.633  0.3450 -0.0650 -0.0140
    5CHTO   H12 2104   6.865   2.371   2.547  0.8997  0.7874 -0.7347
    5CHTO   H13 2105   6.954   2.507   2.613 -0.4999  0.3863 -1.8602
    5CHTO   C15 2106   6.767   2.655   2.678 -0.9385  0.7265  0.7508
    5CHTO   H28 2107   6.777   2.692   2.576 -1.3606 -0.2919  0.3383
    5CHTO   O10 2108   6.878   2.717   2.779  0.4807  0.3186 -0.6233
    5CHTO    H4 2109   6.950   2.753   2.731 -0.4087  0.6129 -1.7673
    5CHTO    O5 2110   6.647   2.714   2.733 -0.0711  0.2508  0.6379
    5CHTO   C10 2111   6.530   2.673   2.668  0.0327  0.2525 -0.0633
    5CHTO   H23 2112   6.547   2.683   2.560  2.8780  0.7176  0.3825
    5CHTO   C17 2113   6.403   2.750   2.708  0.6097  0.0728 -0.1644
    5CHTO   O12 2114   6.281   2.725   2.636 -0.3986 -0.2422  0.0337
    5CHTO    H6 2115   6.216   2.694   2.696 -0.6640 -0.3668 -0.3114
    6CHTO  H203 2116   3.685   4.702   0.381 -0.2791 -0.6656  0.0137
    6CHTO   O82 2117   3.721   4.669   0.461 -0.4733 -0.3825  0.2190
    6CHTO  C123 2118   3.837   4.749   0.489 -0.2277  0.7626 -0.2821
    6CHTO  H227 2119   3.830   4.843   0.432 -1.2797  1.3410  0.7880
    6CHTO   O77 2120   3.819   4.769   0.633 -0.6494 -0.3910 -0.2035
    6CHTO  C118 2121   3.922   4.833   0.714 -0.2147  0.2892 -0.6973
    6CHTO  H222 2122   3.950   4.934   0.679 -0.7875  0.6766 -0.0572
    6CHTO  C125 2123   3.876   4.847   0.867 -0.0230 -0.0343 -0.2227
    6CHTO   O84 2124   3.814   4.731   0.923  0.4668 -0.2436  0.0182
    6CHTO  H205 2125   3.743   4.717   0.864  0.6875  2.3635 -0.9414
    6CHTO  C114 2126   4.044   4.739   0.698  0.4052  0.5104  0.1688
    6CHTO  H218 2127   4.020   4.641   0.738 -0.8539 -0.5009 -2.8793
    6CHTO  C116 2128   4.081   4.724   0.544 -0.1471 -0.6225 -0.3062
    6CHTO  H220 2129   4.085   4.826   0.500 -1.0558 -0.0573  0.9158
    6CHTO   O79 2130   4.208   4.666   0.526 -0.3402  0.2652 -0.3998
    6CHTO  H201 2131   4.216   4.605   0.455 -1.2339 -1.0212  0.5784
    6CHTO  C120 2132   3.970   4.662   0.451 -0.0423  0.3395  0.1983
    6CHTO  H224 2133   3.966   4.559   0.493  0.1527 -0.2803 -1.2638
    6CHTO   N21 2134   3.994   4.643   0.309 -0.1988 -0.2531  0.6888
    6CHTO  H211 2135   3.905   4.646   0.249  0.5306  0.4566 -0.3765
    6CHTO  H212 2136   4.058   4.718   0.265 -0.2148 -0.4406  0.3495
    6CHTO   O75 2137   4.149   4.792   0.783  0.3455  0.1377 -0.2741
    6CHTO  C112 2138   4.188   4.703   0.919  0.3308 -0.3716  0.0966
    6CHTO  H216 2139   4.118   4.619   0.934  0.5394 -0.5106  0.3051
    6CHTO   O73 2140   4.182   4.791   1.033  0.2167 -0.2828 -0.2300
    6CHTO  C113 2141   4.243   4.750   1.154 -0.0559 -0.0223  0.4573
    6CHTO  H217 2142   4.195   4.656   1.189 -0.2645  0.0878  0.4688
    6CHTO  C124 2143   4.205   4.846   1.266  0.4470  0.4883  0.0001
    6CHTO   O83 2144   4.067   4.844   1.302 -0.7044  0.1876  0.1390
    6CHTO  H204 2145   4.050   4.878   1.387  3.8572  0.2677  1.1137
    6CHTO  C109 2146   4.395   4.730   1.132  0.1963  0.3573  0.7246
    6CHTO  H213 2147   4.442   4.822   1.096  2.2865 -0.4473  1.3313
    6CHTO  C110 2148   4.406   4.620   1.025  0.3511 -0.6486  0.3103
    6CHTO  H214 2149   4.367   4.528   1.068 -2.6014 -0.0395 -0.9359
    6CHTO   O78 2150   4.541   4.600   0.992 -0.5719 -0.4396  0.3435
    6CHTO  H200 2151   4.584   4.566   1.068 -0.7551  0.3036  0.7858
    6CHTO  C111 2152   4.328   4.654   0.892  0.8511  0.0378 -0.3997
    6CHTO  H215 2153   4.377   4.744   0.850 -1.2218  0.4270 -2.0862
    6CHTO   N19 2154   4.327   4.548   0.784 -0.2266 -0.5653  0.1214
    6CHTO  H207 2155   4.356   4.589   0.688  0.8908 -0.6929  0.4016
    6CHTO  H208 2156   4.228   4.506   0.781  0.4762 -2.6646  3.8521
    6CHTO   O74 2157   4.461   4.684   1.254  0.2959 -0.4004  0.5021
    6CHTO  C115 2158   4.604   4.758   1.270  0.4039 -0.0027  0.3959
    6CHTO  H219 2159   4.644   4.781   1.172 -1.0096 -0.5112 -0.3176
    6CHTO   O76 2160   4.598   4.897   1.347 -0.1469  0.5552  1.1003
    6CHTO  C122 2161   4.535   4.884   1.477  0.6343 -0.5001 -0.0644
    6CHTO  H226 2162   4.427   4.876   1.463  0.7371 -1.8456 -0.1912
    6CHTO  C126 2163   4.551   5.018   1.562 -0.0068  0.3826  0.1932
    6CHTO   O85 2164   4.684   5.065   1.582  0.1077 -0.5012 -0.2465
    6CHTO  H206 2165   4.717   5.114   1.508  2.6012 -0.9790  0.5133
    6CHTO  C121 2166   4.580   4.757   1.552  0.1700 -0.3910  0.5435
    6CHTO  H225 2167   4.585   4.771   1.662  0.0689  3.9799  0.0880
    6CHTO   O81 2168   4.478   4.661   1.562 -0.0506  0.3148 -0.2157
    6CHTO  H202 2169   4.450   4.625   1.480 -0.1302  1.3851 -0.6623
    6CHTO  C119 2170   4.707   4.689   1.504  0.1908  0.3099  0.3165
    6CHTO  H223 2171   4.784   4.766   1.520  1.1677 -0.9613  1.8784
    6CHTO  C117 2172   4.696   4.662   1.349  0.2379  0.1898 -0.2795
    6CHTO  H221 2173   4.653   4.564   1.332 -0.6563  0.8322 -1.8318
    6CHTO   N20 2174   4.837   4.654   1.297  0.3043 -0.2191 -0.3732
    6CHTO  H209 2175   4.890   4.745   1.320 -0.1267 -0.2850  0.9373
    6CHTO  H210 2176   4.835   4.635   1.191 -1.5279  1.6470 -0.7065
    6CHTO   O80 2177   4.767   4.570   1.595 -0.3821 -0.1720 -0.5093
    6CHTO  C103 2178   4.810   4.604   1.744 -0.8703 -0.4486  0.6186
    6CHTO  H190 2179   4.887   4.534   1.777 -1.5920 -1.1673  0.7920
    6CHTO  C101 2180   4.873   4.747   1.757  0.2675 -0.6073 -0.2027
    6CHTO  H188 2181   4.801   4.818   1.717  1.5563  0.3219 -0.9261
    6CHTO   O68 2182   4.998   4.761   1.660  0.0432 -0.6032  0.3864
    6CHTO  H168 2183   4.971   4.757   1.571  0.9247 -0.8952  0.1238
    6CHTO   C99 2184   4.910   4.788   1.900 -0.3787  0.1413 -0.3323
    6CHTO  H186 2185   4.991   4.718   1.931  0.7172 -0.0250 -3.3526
    6CHTO   N17 2186   4.955   4.935   1.909 -0.4080  0.0690  0.0700
    6CHTO  H174 2187   4.989   4.954   2.010  2.2164  0.0758 -0.7603
    6CHTO  H175 2188   5.038   4.944   1.840 -0.8239 -2.0422 -0.7405
    6CHTO   C97 2189   4.792   4.762   1.999 -0.3503 -0.0027 -0.3736
    6CHTO  H184 2190   4.720   4.843   1.976 -0.7391 -0.3006 -0.2177
    6CHTO   O64 2191   4.739   4.625   1.979  0.5345 -0.3223 -0.1535
    6CHTO  C104 2192   4.688   4.588   1.847 -0.6351 -0.4326  0.8934
    6CHTO  H191 2193   4.602   4.645   1.810 -1.9227 -2.2964  0.9400
    6CHTO  C108 2194   4.626   4.454   1.877  0.0414  0.8659 -0.0467
    6CHTO   O71 2195   4.551   4.411   1.764 -0.2846  0.4262 -0.9307
    6CHTO  H171 2196   4.494   4.343   1.793 -1.3193  1.3063 -0.8991
    6CHTO   O62 2197   4.827   4.766   2.138  0.1233 -0.3026 -0.5201
    6CHTO   C91 2198   4.755   4.852   2.235  0.2836  0.1962  0.1764
    6CHTO  H178 2199   4.795   4.953   2.230  0.5831  0.0119 -1.5011
    6CHTO   C92 2200   4.777   4.797   2.378  0.1858 -0.0538 -0.7539
    6CHTO  H179 2201   4.883   4.783   2.401  0.0496 -1.4952 -0.9338
    6CHTO   O66 2202   4.721   4.881   2.472 -0.2534 -0.6427 -0.0431
    6CHTO  H166 2203   4.738   4.870   2.563  1.0476  0.4629 -0.1338
    6CHTO   C93 2204   4.715   4.652   2.379  0.3972  0.4585 -0.3146
    6CHTO  H180 2205   4.686   4.631   2.483 -0.3373  0.6842 -0.4733
    6CHTO   N16 2206   4.805   4.544   2.338  0.6057  0.7214  0.0467
    6CHTO  H172 2207   4.897   4.534   2.394  0.5278 -0.5829 -0.0369
    6CHTO  H173 2208   4.816   4.550   2.231 -0.9215 -0.3577 -0.1841
    6CHTO   C94 2209   4.578   4.649   2.296 -0.0780 -0.7050 -0.7010
    6CHTO  H181 2210   4.598   4.629   2.191  1.5216 -0.5950 -0.4383
    6CHTO   O61 2211   4.519   4.783   2.300 -0.1572  0.2240 -0.4178
    6CHTO   C95 2212   4.593   4.870   2.211  0.0724  0.4266  0.1965
    6CHTO  H182 2213   4.561   4.851   2.108 -1.7057 -0.3904  0.8707
    6CHTO  C106 2214   4.547   5.017   2.243 -0.0132 -0.2036 -0.4835
    6CHTO   O69 2215   4.407   5.041   2.231  0.3393  0.1166  0.0391
    6CHTO  H169 2216   4.389   5.125   2.268 -1.3217 -0.9558  1.7795
    6CHTO   O63 2217   4.476   4.550   2.360  0.1253 -0.2295  0.4844
    6CHTO   C96 2218   4.426   4.452   2.246  0.0090 -0.4272  0.4352
    6CHTO  H183 2219   4.484   4.469   2.155 -2.1554 -0.5783 -1.0262
    6CHTO   C98 2220   4.279   4.478   2.193 -0.3385 -0.7491 -0.2033
    6CHTO  H185 2221   4.210   4.466   2.278  1.1488 -1.3062  0.9378
    6CHTO   O67 2222   4.257   4.611   2.153 -0.0526 -0.1711  0.1777
    6CHTO  H167 2223   4.165   4.631   2.154 -0.2084 -0.8549  1.0131
    6CHTO  C102 2224   4.246   4.376   2.075  0.1387 -0.6535  0.1136
    6CHTO  H189 2225   4.310   4.410   1.992  2.1623 -0.6651  1.6319
    6CHTO   N18 2226   4.108   4.382   2.024  0.0533  0.4695 -0.3086
    6CHTO  H176 2227   4.108   4.450   1.940 -0.1139  0.0990 -0.6160
    6CHTO  H177 2228   4.074   4.283   1.996  1.7383  0.8652 -4.1033
    6CHTO  C105 2229   4.288   4.237   2.123  0.2721  0.4864  0.2495
    6CHTO  H192 2230   4.207   4.186   2.174 -1.4514  2.8711 -0.0195
    6CHTO   O65 2231   4.416   4.224   2.199  0.1950 -0.0636  0.2272
    6CHTO  C100 2232   4.435   4.319   2.306 -0.0925 -0.9194  0.5084
    6CHTO  H187 2233   4.349   4.309   2.374 -0.2829  2.3037  0.7909
    6CHTO  C107 2234   4.561   4.279   2.383  0.0275  0.0103  0.1530
    6CHTO   O70 2235   4.532   4.163   2.453 -0.1736  0.0557 -0.5081
    6CHTO  H170 2236   4.555   4.089   2.400  1.7112 -0.1020  0.4616
    6CHTO   O57 2237   4.302   4.149   1.985  0.0439  0.3403  0.4699
    6CHTO   C85 2238   4.208   4.050   1.947 -0.9190  0.0031  0.0901
    6CHTO  H157 2239   4.112   4.078   1.994 -0.8242 -0.9210  0.8470
    6CHTO   C83 2240   4.252   3.922   2.021  0.1259 -0.7246 -0.1638
    6CHTO  H155 2241   4.249   3.940   2.128  1.0989  2.3340 -0.5878
    6CHTO   O56 2242   4.391   3.899   1.993  0.2077  0.1692  0.2138
    6CHTO  H135 2243   4.439   3.864   2.065 -0.4806  0.2249  0.7129
    6CHTO   C81 2244   4.157   3.795   1.993  0.0708  0.3148 -0.3972
    6CHTO  H153 2245   4.060   3.807   2.040  1.1517 -1.3752  2.3348
    6CHTO   N14 2246   4.202   3.674   2.068 -0.1365 -0.2046  0.4330
    6CHTO  H141 2247   4.302   3.662   2.034 -0.7712  0.8854 -1.9394
    6CHTO  H142 2248   4.207   3.696   2.172  1.9954  2.5946 -0.2064
    6CHTO   C79 2249   4.132   3.774   1.846 -0.0500  0.2172 -0.0585
    6CHTO  H151 2250   4.054   3.700   1.831  0.5440 -0.7665  1.4840
    6CHTO   O52 2251   4.097   3.904   1.781  0.2680  0.2718 -0.3321
    6CHTO   C86 2252   4.194   4.011   1.798  0.9277  0.4167  0.0945
    6CHTO  H158 2253   4.295   3.985   1.759  0.6737 -0.0825 -0.2380
    6CHTO   C90 2254   4.156   4.141   1.717 -0.1511 -0.0800 -0.2239
    6CHTO   O60 2255   4.144   4.111   1.575 -0.3402  0.0207 -0.0758
    6CHTO  H138 2256   4.090   4.172   1.528  1.2720  1.5652  0.0754
    6CHTO   O50 2257   4.246   3.724   1.775 -0.1424  0.1410  0.3602
    6CHTO   C73 2258   4.294   3.642   1.663 -0.3506 -0.3304 -0.0274
    6CHTO  H145 2259   4.212   3.583   1.619 -1.6054  1.0463  0.3912
    6CHTO   C74 2260   4.402   3.548   1.724  0.3912  0.5179  0.5673
    6CHTO  H146 2261   4.352   3.479   1.793  0.5678 -0.3804 -0.2003
    6CHTO   O54 2262   4.460   3.471   1.616  0.1307  0.1560  0.0087
    6CHTO  H133 2263   4.537   3.516   1.586 -0.3164  1.8174  1.2928
    6CHTO   C75 2264   4.519   3.635   1.795  0.1280 -0.3046  0.2495
    6CHTO  H147 2265   4.475   3.695   1.875 -0.1437 -1.6649  1.1498
    6CHTO   N13 2266   4.635   3.551   1.855 -0.0481 -0.1946  0.3360
    6CHTO  H139 2267   4.697   3.607   1.923  0.6753 -2.8832  1.9792
    6CHTO  H140 2268   4.587   3.470   1.908 -1.0726  0.6948  0.7781
    6CHTO   C76 2269   4.570   3.752   1.690  0.2138 -0.7014  0.6101
    6CHTO  H148 2270   4.627   3.699   1.614  0.5092  0.1004  0.2686
    6CHTO   O49 2271   4.456   3.825   1.632  0.2399  0.2169 -0.4298
    6CHTO   C77 2272   4.359   3.743   1.557 -0.4410 -0.5708  0.5240
    6CHTO  H149 2273   4.417   3.692   1.479  1.8750  1.7032  0.6869
    6CHTO   C88 2274   4.260   3.831   1.481 -0.7147  1.1424  0.0453
    6CHTO   O58 2275   4.314   3.916   1.398  0.0712  0.3544  0.0040
    6CHTO  H136 2276   4.254   3.946   1.332  0.8481 -1.0660 -1.3809
    6CHTO   O51 2277   4.647   3.855   1.758  0.4237 -0.3267  0.1230
    6CHTO   C78 2278   4.731   3.963   1.677 -0.1682 -0.0744  0.1632
    6CHTO  H150 2279   4.796   4.020   1.746 -0.5887  0.8560 -0.2096
    6CHTO   C80 2280   4.639   4.062   1.602  0.0193  0.0814  0.4297
    6CHTO  H152 2281   4.579   4.004   1.528  2.7397 -1.6721 -0.4684
    6CHTO   O55 2282   4.558   4.127   1.703  0.0511  0.6118  0.5402
    6CHTO  H134 2283   4.564   4.219   1.688 -0.4445  0.5757  0.0744
    6CHTO   C84 2284   4.726   4.172   1.523  0.9134 -0.1392  0.5930
    6CHTO  H156 2285   4.776   4.232   1.599 -4.1211  1.1087  3.1316
    6CHTO   N15 2286   4.635   4.274   1.459 -0.3009 -0.1783 -0.1918
    6CHTO  H143 2287   4.672   4.371   1.483  0.0912 -0.9530  2.5118
    6CHTO  H144 2288   4.532   4.273   1.489 -0.9911 -0.0114 -2.4724
    6CHTO   C87 2289   4.817   4.098   1.421 -0.5046  0.0883  0.4002
    6CHTO  H159 2290   4.747   4.061   1.346 -0.9162  0.0206  0.8097
    6CHTO   O53 2291   4.908   3.975   1.509 -0.2320 -0.1480  0.4788
    6CHTO   C82 2292   4.818   3.885   1.576 -0.7973 -0.9976 -0.0852
    6CHTO  H154 2293   4.757   3.826   1.508  0.2916 -1.2954 -0.8221
    6CHTO   C89 2294   4.915   3.789   1.648 -0.1392  0.1040  0.6571
    6CHTO   O59 2295   5.001   3.724   1.560 -0.0100 -0.0574 -0.6013
    6CHTO  H137 2296   4.957   3.683   1.488 -2.1899 -0.2240  0.7955
    6CHTO   O45 2297   4.935   4.186   1.331 -0.4670 -0.4495 -0.1939
    6CHTO   C67 2298   5.068   4.186   1.386  0.4343 -0.7218  0.0783
    6CHTO  H124 2299   5.091   4.085   1.421 -1.1796 -0.9929  0.3772
    6CHTO   C65 2300   5.166   4.233   1.280  0.2963 -0.2059  0.1909
    6CHTO  H122 2301   5.142   4.170   1.194 -0.4859 -1.3032  1.1831
    6CHTO   O44 2302   5.293   4.187   1.328 -0.2569 -0.0551 -0.3366
    6CHTO  H102 2303   5.325   4.251   1.389  0.5147 -1.8181  1.1562
    6CHTO   C63 2304   5.146   4.382   1.244 -0.6276 -1.0888  0.1256
    6CHTO  H120 2305   5.047   4.398   1.200 -1.3447 -0.8223  1.8048
    6CHTO   N11 2306   5.239   4.437   1.136 -0.5751 -0.1560 -0.0056
    6CHTO  H108 2307   5.176   4.479   1.061  1.2457  0.3125 -1.3308
    6CHTO  H109 2308   5.292   4.351   1.098  2.1302  1.2777  0.3717
    6CHTO   C61 2309   5.162   4.469   1.372 -0.0808 -0.2117 -0.0853
    6CHTO  H118 2310   5.121   4.568   1.347 -0.9592 -0.3827  0.6569
    6CHTO   O40 2311   5.091   4.427   1.490 -0.1582  0.0297 -0.3299
    6CHTO   C68 2312   5.068   4.280   1.512  0.3178  0.0173 -0.5995
    6CHTO  H125 2313   4.962   4.276   1.547  1.1048  1.0641  2.0235
    6CHTO   C72 2314   5.162   4.233   1.618  0.1559 -0.3466 -1.1285
    6CHTO   O48 2315   5.153   4.093   1.646 -0.4309  0.5632 -0.0947
    6CHTO  H105 2316   5.199   4.052   1.576  0.9933 -0.8595  1.6350
    6CHTO   O38 2317   5.297   4.498   1.424 -0.1030 -0.3527 -0.2202
    6CHTO   C55 2318   5.318   4.604   1.525 -0.1032 -0.7959 -0.0056
    6CHTO  H112 2319   5.245   4.584   1.605  1.1855  0.1414  1.4273
    6CHTO   C56 2320   5.301   4.751   1.468  0.2246 -0.2803 -0.0012
    6CHTO  H113 2321   5.349   4.750   1.369 -0.0917 -0.6286 -0.1508
    6CHTO   O42 2322   5.166   4.782   1.444  0.3975 -0.3396  0.0580
    6CHTO  H100 2323   5.157   4.838   1.369 -0.7511  0.8824  1.0848
    6CHTO   C57 2324   5.368   4.855   1.560 -0.1722  0.1852 -0.4300
    6CHTO  H114 2325   5.316   4.858   1.656 -0.0034 -1.7089 -0.2651
    6CHTO   N10 2326   5.363   4.999   1.515  0.0445 -0.3216  0.0456
    6CHTO  H106 2327   5.360   5.077   1.590 -0.3718  0.0883 -0.3917
    6CHTO  H107 2328   5.444   5.029   1.451 -0.5037  2.1175  0.4188
    6CHTO   C58 2329   5.513   4.812   1.587 -0.2000 -0.0043  0.3586
    6CHTO  H115 2330   5.572   4.809   1.493  0.4474 -3.4283  0.7791
    6CHTO   O37 2331   5.512   4.683   1.647  0.0116  0.2449 -0.3073
    6CHTO   C59 2332   5.461   4.571   1.582  0.1707 -0.3645 -0.2905
    6CHTO  H116 2333   5.522   4.549   1.494 -0.2672 -0.1010 -0.6650
    6CHTO   C70 2334   5.473   4.455   1.677 -0.6975  0.4734 -0.9096
    6CHTO   O46 2335   5.389   4.471   1.789 -0.4803 -0.1430 -0.3812
    6CHTO  H103 2336   5.300   4.470   1.760 -0.3243  1.2029 -0.9326
    6CHTO   O39 2337   5.603   4.923   1.700 -0.2418 -0.0792 -0.0913
    6CHTO   C60 2338   5.741   4.928   1.666 -0.7075 -0.8304  0.0067
    6CHTO  H117 2339   5.763   4.851   1.592  0.4741  0.2074 -0.7387
    6CHTO   C62 2340   5.777   5.075   1.607 -0.0163 -0.8785 -0.2739
    6CHTO  H119 2341   5.717   5.091   1.515  0.0242 -1.5872 -0.4300
    6CHTO   O43 2342   5.746   5.170   1.707  0.1543 -0.1055  0.0746
    6CHTO  H101 2343   5.767   5.133   1.791  0.6087 -1.9291 -0.8169
    6CHTO   C66 2344   5.935   5.085   1.560 -0.8133  0.0677 -0.3216
    6CHTO  H123 2345   5.951   5.002   1.490  0.5099 -1.7675  2.0566
    6CHTO   N12 2346   5.966   5.214   1.498 -0.5433  0.2795  0.2501
    6CHTO  H110 2347   5.874   5.268   1.482  0.7639  1.9023 -2.2138
    6CHTO  H111 2348   6.045   5.279   1.534 -0.3452  0.8908 -1.2432
    6CHTO   C69 2349   6.023   5.050   1.682  0.4401 -0.1195  0.1030
    6CHTO  H126 2350   6.025   5.128   1.761  0.5645 -1.0939  1.0776
    6CHTO   O41 2351   5.973   4.909   1.730  0.9498  0.3155  0.4627
    6CHTO   C64 2352   5.836   4.899   1.787 -0.2103 -0.0230  0.2137
    6CHTO  H121 2353   5.807   4.979   1.859 -0.4489 -1.1520  1.3841
    6CHTO   C71 2354   5.810   4.764   1.852 -0.6707  0.5282  0.4023
    6CHTO   O47 2355   5.880   4.767   1.975  0.2969 -0.1372 -0.2939
    6CHTO  H104 2356   5.822   4.794   2.042 -1.7842 -2.0959 -1.2427
    6CHTO   O34 2357   6.191   5.026   1.621  0.0440 -0.3501 -0.0508
    6CHTO   C49 2358   6.314   5.101   1.553  0.7737 -0.3957  0.0361
    6CHTO   H91 2359   6.268   5.149   1.467 -1.3486 -2.7598 -0.2277
    6CHTO   C47 2360   6.431   5.010   1.505 -0.6115  0.4551 -0.5180
    6CHTO   H89 2361   6.497   5.074   1.445 -0.5044  0.8388  0.0033
    6CHTO   O33 2362   6.384   4.898   1.425 -0.1473  0.1697 -0.3190
    6CHTO   H70 2363   6.460   4.862   1.385 -0.0151  1.2807 -1.1038
    6CHTO   C45 2364   6.512   4.947   1.633  0.6766  0.3924  0.7901
    6CHTO   H87 2365   6.432   4.883   1.674  0.2630 -0.3546 -1.1055
    6CHTO    N8 2366   6.628   4.858   1.611  0.7161  0.1909  0.1090
    6CHTO   H75 2367   6.641   4.829   1.508  2.7226  0.0285  0.3968
    6CHTO   H76 2368   6.609   4.766   1.664 -0.4532  1.2834  1.6290
    6CHTO   C43 2369   6.545   5.059   1.739 -0.5811  0.0645 -0.4946
    6CHTO   H85 2370   6.580   5.006   1.827  0.7754  0.3373 -0.8481
    6CHTO   O29 2371   6.433   5.146   1.769 -0.0886 -0.3068 -0.0145
    6CHTO   C50 2372   6.355   5.200   1.665 -0.2988  0.0117 -0.1494
    6CHTO   H92 2373   6.260   5.239   1.705 -1.1811 -0.2612 -1.9361
    6CHTO   C54 2374   6.424   5.327   1.602  0.3233  0.3638  0.3281
    6CHTO   O36 2375   6.325   5.392   1.518 -0.1492 -0.0112 -0.2423
    6CHTO   H72 2376   6.371   5.428   1.444  0.1880  1.0334  0.4613
    6CHTO   O27 2377   6.659   5.145   1.704 -0.0726 -0.2519  0.4249
    6CHTO   C37 2378   6.756   5.176   1.808  0.5446 -0.2008  0.0837
    6CHTO   H79 2379   6.717   5.150   1.908 -0.6440  2.5597  0.3828
    6CHTO   C38 2380   6.896   5.117   1.776 -0.5315 -0.2548 -0.1554
    6CHTO   H80 2381   6.926   5.156   1.678  0.8111  0.4140  0.5030
    6CHTO   O31 2382   6.895   4.968   1.772  0.3405 -0.3496  0.0791
    6CHTO   H68 2383   6.842   4.936   1.842 -0.2733 -1.0456 -0.6997
    6CHTO   C39 2384   7.008   5.167   1.870  0.1288  0.2508  0.0542
    6CHTO   H81 2385   6.987   5.115   1.964 -0.4439 -0.2386 -0.3459
    6CHTO    N7 2386   7.146   5.139   1.829  0.5524  0.3904 -0.2872
    6CHTO   H73 2387   7.196   5.101   1.918 -1.5049 -0.1962  0.6439
    6CHTO   H74 2388   7.208   5.214   1.783  0.6897 -0.7036 -1.9506
    6CHTO   C40 2389   7.012   5.321   1.900  0.2832  0.1644 -0.0723
    6CHTO   H82 2390   7.074   5.376   1.830  0.3571 -0.0438 -0.1689
    6CHTO   O26 2391   6.876   5.366   1.904  0.0587 -0.4465 -0.1217
    6CHTO   C41 2392   6.780   5.331   1.806  0.1865  0.5340  0.0979
    6CHTO   H83 2393   6.805   5.370   1.706  1.5433 -1.2659 -0.2806
    6CHTO   C52 2394   6.657   5.412   1.852  0.5408  0.1803  0.6143
    6CHTO   O35 2395   6.595   5.362   1.997 -0.1587 -0.7077  0.0249
    6CHTO   H71 2396   6.503   5.382   2.000 -0.0514 -0.0322 -1.0958
    6CHTO   O28 2397   7.056   5.334   2.036 -0.1931  0.1738 -0.2542
    6CHTO   C42 2398   7.067   5.468   2.112 -0.7080  0.5881  0.2352
    6CHTO   H84 2399   7.004   5.541   2.062 -0.4943  0.7126  0.1475
    6CHTO   C44 2400   7.211   5.523   2.112 -0.0717  0.3809  1.1369
    6CHTO   H86 2401   7.280   5.439   2.123  0.6759  0.2040 -3.5771
    6CHTO   O32 2402   7.240   5.553   1.976 -0.5701 -0.3582 -0.1223
    6CHTO   H69 2403   7.175   5.614   1.947  0.7492  3.4189  4.2886
    6CHTO   C48 2404   7.226   5.649   2.207  0.5887 -0.5326  0.7966
    6CHTO   H90 2405   7.184   5.734   2.154  0.0890 -2.0603 -1.3192
    6CHTO    N9 2406   7.376   5.677   2.218  0.3423 -0.1886  0.5087
    6CHTO   H77 2407   7.405   5.696   2.321 -1.5281  0.6562  0.8982
    6CHTO   H78 2408   7.402   5.754   2.147  2.1404  0.4949  1.8545
    6CHTO   C51 2409   7.149   5.628   2.341  0.6527  0.3128 -0.0653
    6CHTO   H93 2410   7.207   5.548   2.387  1.5201  0.2452 -1.2548
    6CHTO   O30 2411   7.014   5.586   2.309  0.0658 -0.1202  0.1091
    6CHTO   C46 2412   7.007   5.456   2.259 -0.0335 -0.6307 -0.1974
    6CHTO   H88 2413   7.072   5.390   2.318 -0.9397 -1.4755 -0.1265
    6CHTO   C53 2414   6.855   5.420   2.268  0.2746 -0.3806  0.1553
    6CHTO   O72 2415   6.824   5.427   2.405 -0.5865 -0.0390  0.0325
    6CHTO  H199 2416   6.790   5.344   2.433  4.6509 -1.7829  1.7679
    6CHTO   O22 2417   7.147   5.748   2.422 -0.0870  0.1935  0.2469
    6CHTO   C31 2418   7.097   5.739   2.558 -0.5795  0.2148 -0.6333
    6CHTO   H59 2419   7.033   5.649   2.558 -1.4750  0.8328  1.2485
    6CHTO   C29 2420   7.200   5.726   2.677 -0.3229  0.5518  0.1321
    6CHTO   H57 2421   7.261   5.817   2.682  3.0347 -1.5416 -1.1676
    6CHTO   O21 2422   7.291   5.622   2.639  0.1557 -0.1331 -0.2971
    6CHTO   H37 2423   7.381   5.647   2.640 -0.0475  0.6294  1.0212
    6CHTO   C27 2424   7.125   5.701   2.817 -0.0065 -0.0521 -0.9201
    6CHTO   H55 2425   7.060   5.614   2.800 -1.4648  0.6830  0.7249
    6CHTO    N5 2426   7.216   5.674   2.929 -0.0771 -0.1105 -0.0866
    6CHTO   H43 2427   7.241   5.571   2.907 -1.6335 -0.5203 -0.0103
    6CHTO   H44 2428   7.295   5.747   2.929 -0.7566  0.6319  0.8342
    6CHTO   C25 2429   7.032   5.826   2.838  0.3176 -0.1629 -0.0281
    6CHTO   H53 2430   7.102   5.909   2.853  0.5137 -0.0178 -1.6693
    6CHTO   O17 2431   6.940   5.842   2.728 -0.0696  0.7781  0.5388
    6CHTO   C32 2432   6.992   5.857   2.592 -0.3940  0.5251  1.1187
    6CHTO   H60 2433   7.034   5.954   2.566 -2.3738  0.8016 -1.1837
    6CHTO   C36 2434   6.864   5.854   2.501  0.4685  0.0800 -0.7951
    6CHTO   O25 2435   6.794   5.731   2.494  0.1889 -0.1739  0.1517
    6CHTO   H40 2436   6.757   5.726   2.408 -0.4652  0.0864  0.4194
    6CHTO   O15 2437   6.937   5.829   2.968 -0.4761 -0.4059  0.6121
    6CHTO   C19 2438   6.842   5.912   3.028 -0.5894 -0.7583 -0.0750
    6CHTO   H47 2439   6.823   5.858   3.122  2.4691 -0.0349  1.0184
    6CHTO   C20 2440   6.901   6.051   3.065  0.3286  0.4545 -0.0265
    6CHTO   H48 2441   6.961   6.094   2.984  2.4785 -0.3850  1.0701
    6CHTO   O19 2442   6.996   6.039   3.171 -0.1776  0.3153 -0.2436
    6CHTO   H35 2443   7.088   6.038   3.157 -0.0649  0.0863  0.5095
    6CHTO   C21 2444   6.780   6.147   3.107 -1.3579 -0.0750  0.8148
    6CHTO   H49 2445   6.745   6.116   3.205 -1.5440 -1.6509  0.2698
    6CHTO    N4 2446   6.837   6.284   3.115 -0.0875 -0.1891  0.4987
    6CHTO   H41 2447   6.896   6.310   3.028  1.0954 -1.1071  1.0117
    6CHTO   H42 2448   6.758   6.357   3.124  0.5181  0.9989 -2.8166
    6CHTO   C22 2449   6.657   6.134   3.019  0.2924 -0.0048  0.7520
    6CHTO   H50 2450   6.688   6.165   2.920 -1.0265 -0.7737  0.0839
    6CHTO   O14 2451   6.612   5.998   3.019 -1.0022  0.6867  0.4001
    6CHTO   C23 2452   6.707   5.919   2.950 -0.3031 -0.2461 -1.1491
    6CHTO   H51 2453   6.719   5.957   2.847 -0.1271 -1.5402 -1.6100
    6CHTO   C34 2454   6.643   5.784   2.925  0.4322  0.0008  0.2511
    6CHTO   O23 2455   6.531   5.777   2.842 -0.6051 -0.6587 -0.3665
    6CHTO   H38 2456   6.569   5.756   2.760  0.7464 -1.2541  0.4019
    6CHTO   O16 2457   6.545   6.201   3.076 -0.3634  0.0199  0.0098
    6CHTO   C24 2458   6.436   6.238   2.978 -0.1255  0.5767  0.3207
    6CHTO   H52 2459   6.449   6.187   2.882  1.5755 -1.1285  1.4191
    6CHTO   C26 2460   6.437   6.389   2.966  0.7470 -0.1390 -0.3953
    6CHTO   H54 2461   6.432   6.430   3.069 -0.4907  1.5053 -1.0713
    6CHTO   O20 2462   6.562   6.422   2.905  0.0045  0.0170 -0.3692
    6CHTO   H36 2463   6.591   6.503   2.943 -0.7183 -0.5285  1.4074
    6CHTO   C30 2464   6.320   6.439   2.877 -0.1788 -0.1724  0.4450
    6CHTO   H58 2465   6.339   6.407   2.773  2.1407  0.1455  0.7444
    6CHTO    N6 2466   6.324   6.588   2.856 -0.4732 -0.1294  0.0954
    6CHTO   H45 2467   6.239   6.616   2.795  0.1185 -2.5806 -1.9497
    6CHTO   H46 2468   6.411   6.611   2.797 -0.5848  1.5716  0.5625
    6CHTO   C33 2469   6.180   6.382   2.914  0.4460 -0.4491  0.0413
    6CHTO   H61 2470   6.145   6.432   3.005 -0.6037 -1.4946  0.2232
    6CHTO   O18 2471   6.189   6.238   2.947 -0.4843 -0.1802  0.0180
    6CHTO   C28 2472   6.296   6.199   3.037 -0.2813 -0.2639  0.0946
    6CHTO   H56 2473   6.282   6.246   3.135 -0.3262 -1.1849  0.5359
    6CHTO   C35 2474   6.266   6.046   3.057  0.0299 -0.5947  0.0352
    6CHTO   O24 2475   6.321   5.991   3.178  0.0053  0.1259  0.5758
    6CHTO   H39 2476   6.414   5.998   3.182  0.0728 -1.0967  1.3911
    6CHTO    O9 2477   6.084   6.407   2.811  0.3709  0.1277 -0.2354
    6CHTO   C13 2478   5.939   6.389   2.825 -0.1974  0.2222  0.6290
    6CHTO   H26 2479   5.916   6.400   2.933 -1.3946 -0.9832  0.5034
    6CHTO   C11 2480   5.903   6.248   2.778  0.4933  0.0424 -0.2072
    6CHTO   H24 2481   5.950   6.185   2.855 -0.1782  0.2305  0.3736
    6CHTO    O8 2482   5.971   6.230   2.648  0.3440  0.0816 -0.0351
    6CHTO    H3 2483   5.966   6.141   2.619  1.6107  0.9923 -3.2927
    6CHTO    C9 2484   5.753   6.220   2.772 -0.2160  0.2725 -0.5890
    6CHTO   H22 2485   5.718   6.208   2.876 -2.6749  0.4046 -1.3773
    6CHTO    N2 2486   5.720   6.090   2.718 -0.2645 -0.4959  0.0205
    6CHTO   H10 2487   5.796   6.018   2.746  0.3189 -0.1772 -0.7234
    6CHTO   H11 2488   5.630   6.054   2.767 -0.0591 -1.1783 -0.0950
    6CHTO    C7 2489   5.670   6.348   2.718 -0.4072  0.2114 -0.9479
    6CHTO   H20 2490   5.630   6.402   2.806  0.4424  0.5658 -0.7799
    6CHTO    O4 2491   5.758   6.445   2.650 -0.2595  0.9044  0.0782
    6CHTO   C14 2492   5.855   6.501   2.740 -0.5300 -0.3982 -0.2138
    6CHTO   H27 2493   5.800   6.563   2.814 -0.5274  0.3250 -0.8048
    6CHTO   C18 2494   5.952   6.597   2.657 -0.1633 -0.3659  0.2265
    6CHTO   O13 2495   5.884   6.717   2.633 -0.4275 -0.1803 -0.3781
    6CHTO    H7 2496   5.946   6.771   2.588  0.9896 -0.8875  0.6800
    6CHTO    O2 2497   5.553   6.313   2.617  0.0663 -0.0636 -0.5669
    6CHTO    C1 2498   5.421   6.348   2.666 -0.6246 -0.1973  0.1866
    6CHTO   H14 2499   5.432   6.452   2.703  0.4501  0.1638 -1.1036
    6CHTO    C2 2500   5.370   6.250   2.779 -0.3171 -0.4285  0.3769
    6CHTO   H15 2501   5.382   6.149   2.736 -2.4864 -0.0383 -1.2165
    6CHTO    O6 2502   5.448   6.263   2.904 -0.6184 -0.1522  0.0464
    6CHTO    H1 2503   5.425   6.204   2.973  1.8354 -0.6967  0.4476
    6CHTO    C3 2504   5.215   6.278   2.808 -0.2044 -0.1852  0.9508
    6CHTO   H16 2505   5.208   6.377   2.854  1.1825  0.2583  0.2308
    6CHTO    N1 2506   5.156   6.179   2.910 -0.5554  0.1776 -0.2051
    6CHTO    H8 2507   5.211   6.157   3.000  0.5182  0.5126 -0.7716
    6CHTO    H9 2508   5.110   6.087   2.876  3.1447 -1.0422 -2.1616
    6CHTO    C4 2509   5.119   6.287   2.682 -1.0682 -0.0716 -0.2924
    6CHTO   H17 2510   5.091   6.187   2.650 -1.4548  0.4204 -1.5098
    6CHTO    O1 2511   5.186   6.364   2.573 -0.0026 -0.3020 -0.1464
    6CHTO    C5 2512   5.322   6.344   2.533  0.7266 -0.5303  0.0803
    6CHTO   H18 2513   5.312   6.248   2.482 -0.8106 -0.6071  0.4912
    6CHTO   C16 2514   5.346   6.454   2.425 -0.0965  0.0424  0.4093
    6CHTO   O11 2515   5.312   6.588   2.464  0.2672 -0.0178 -0.1136
    6CHTO    H5 2516   5.285   6.639   2.391 -1.9979 -1.5602 -0.3913
    6CHTO    O3 2517   4.996   6.351   2.719 -0.2643  0.2793  0.3611
    6CHTO    C6 2518   4.881   6.327   2.631 -0.1814  0.2134 -0.1933
    6CHTO   H19 2519   4.805   6.395   2.669 -1.3457 -0.6720 -0.9227
    6CHTO    C8 2520   4.907   6.367   2.479  0.2041 -0.3636  0.2558
    6CHTO   H21 2521   4.976   6.301   2.427  0.2768  0.2622 -0.4627
    6CHTO    O7 2522   4.951   6.505   2.478 -0.1743  0.2040  0.4697
    6CHTO    H2 2523   4.980   6.524   2.391  2.4739 -0.6552  1.1186
    6CHTO   C12 2524   4.774   6.349   2.406  0.8626 -0.7631  0.0494
    6CHTO   H25 2525   4.709   6.430   2.446  0.1120 -1.7873  0.9347
    6CHTO    N3 2526   4.783   6.371   2.254  0.0709 -0.2224 -0.1281
    6CHTO   H12 2527   4.830   6.278   2.226  0.4970 -0.2276  0.5975
    6CHTO   H13 2528   4.681   6.373   2.217  0.4372  1.3617 -1.1042
    6CHTO   C15 2529   4.708   6.209   2.431  0.2416  0.3021 -0.4697
    6CHTO   H28 2530   4.754   6.122   2.384  1.2721  1.3402 -1.3991
    6CHTO   O10 2531   4.552   6.213   2.392  0.2732 -0.2532 -0.3021
    6CHTO    H4 2532   4.505   6.135   2.413 -1.6361  0.1904 -2.6081
    6CHTO    O5 2533   4.693   6.179   2.572 -0.2211 -1.2616 -0.1677
    6CHTO   C10 2534   4.819   6.183   2.643 -0.8395  0.6405  0.7154
    6CHTO   H23 2535   4.893   6.116   2.599 -0.5741  0.2684  1.7150
    6CHTO   C17 2536   4.784   6.142   2.784  0.6550  0.1852  0.1154
    6CHTO   O12 2537   4.745   6.005   2.790 -0.1095 -0.1400  0.2908
    6CHTO    H6 2538   4.811   5.939   2.779 -0.9044 -0.6325 -1.6554
    7CHTO  H203 2539   4.640   1.229   0.473 -2.1505  1.1654  0.2608
    7CHTO   O82 2540   4.606   1.203   0.390  0.0556  0.1112 -0.3613
    7CHTO  C123 2541   4.670   1.270   0.278  0.1242  0.4233  0.3082
    7CHTO  H227 2542   4.638   1.224   0.183 -0.6270 -0.8556  1.1545
    7CHTO   O77 2543   4.629   1.410   0.288 -0.1698 -0.6130  0.8309
    7CHTO  C118 2544   4.659   1.478   0.159 -0.2950  0.6406  0.4167
    7CHTO  H222 2545   4.613   1.422   0.077  0.9357  0.4079 -0.1218
    7CHTO  C125 2546   4.590   1.614   0.164 -0.1796 -0.0793  0.4740
    7CHTO   O84 2547   4.444   1.612   0.187 -0.3079 -0.2429  0.1326
    7CHTO  H205 2548   4.397   1.585   0.111  1.8196  3.0216 -2.4891
    7CHTO  C114 2549   4.809   1.494   0.151  0.5508 -0.2529  0.0015
    7CHTO  H218 2550   4.840   1.555   0.236  4.2171 -0.1089 -1.3385
    7CHTO  C116 2551   4.878   1.352   0.163  0.1803 -0.0861  0.2401
    7CHTO  H220 2552   4.855   1.293   0.072 -0.9457  2.2984 -1.0614
    7CHTO   O79 2553   5.020   1.369   0.156 -0.7516 -0.4567  0.3691
    7CHTO  H201 2554   5.061   1.336   0.233 -0.9545 -2.5181 -0.3630
    7CHTO  C120 2555   4.821   1.283   0.287  0.5005 -0.0389 -0.5479
    7CHTO  H224 2556   4.857   1.341   0.374  0.3437 -0.9922  0.1590
    7CHTO   N21 2557   4.877   1.146   0.290  0.3938  0.4117  0.2904
    7CHTO  H211 2558   4.812   1.085   0.230 -1.5330  2.4035  0.2582
    7CHTO  H212 2559   4.902   1.112   0.389  4.1300 -0.2842 -0.7920
    7CHTO   O75 2560   4.830   1.565   0.026 -0.5940 -0.6299  0.5423
    7CHTO  C112 2561   4.945   1.668   0.038  0.4877  0.3625 -0.0390
    7CHTO  H216 2562   5.036   1.609   0.060  0.9773  0.3610 -1.9751
    7CHTO   O73 2563   4.915   1.763   0.145  0.6641 -0.0432 -1.4244
    7CHTO  C113 2564   5.033   1.843   0.168  0.0451 -0.4404  0.5319
    7CHTO  H217 2565   5.120   1.778   0.189  0.3322  0.2290  1.4853
    7CHTO  C124 2566   5.005   1.934   0.285  0.0214  0.1923 -0.0553
    7CHTO   O83 2567   5.013   1.869   0.411  0.0662  0.0704 -0.1699
    7CHTO  H204 2568   5.087   1.901   0.459  0.1493  1.9215 -1.4335
    7CHTO  C109 2569   5.074   1.932   0.044  0.2012  0.3238  0.0316
    7CHTO  H213 2570   4.995   2.007   0.027 -0.0033 -0.6607 -3.7807
    7CHTO  C110 2571   5.090   1.844  -0.084  0.2155 -0.2301  0.4456
    7CHTO  H214 2572   5.180   1.783  -0.083  0.8802  0.7351  0.2677
    7CHTO   O78 2573   5.112   1.928  -0.193 -0.1844 -0.2614 -0.0270
    7CHTO  H200 2574   5.118   1.874  -0.270  0.1378  0.7597 -0.7297
    7CHTO  C111 2575   4.969   1.740  -0.096 -0.6652 -0.3048  0.1380
    7CHTO  H215 2576   4.876   1.794  -0.116 -1.5074 -2.0499 -0.7624
    7CHTO   N19 2577   4.992   1.651  -0.211  0.0670 -0.2387  0.4079
    7CHTO  H207 2578   4.900   1.601  -0.240 -0.2794  0.7678 -0.2711
    7CHTO  H208 2579   5.066   1.576  -0.188  0.9053  0.9947  1.7612
    7CHTO   O74 2580   5.193   2.002   0.086 -0.1240  0.8167  0.6407
    7CHTO  C115 2581   5.206   2.151   0.032  0.8351 -0.1998 -0.5893
    7CHTO  H219 2582   5.150   2.164  -0.061 -2.0544  2.4518  1.4040
    7CHTO   O76 2583   5.144   2.258   0.133 -0.2587 -0.5675 -0.1795
    7CHTO  C122 2584   5.219   2.262   0.260  1.0136 -0.2371  0.1125
    7CHTO  H226 2585   5.220   2.168   0.314 -0.2835  0.6368  1.7010
    7CHTO  C126 2586   5.153   2.365   0.357  0.1398  0.7157  0.1699
    7CHTO   O85 2587   5.010   2.353   0.362 -0.3386  0.2077  0.8603
    7CHTO  H206 2588   4.974   2.405   0.431  1.0506  2.1501  0.1616
    7CHTO  C121 2589   5.369   2.307   0.227 -0.2169 -0.3456  0.7615
    7CHTO  H225 2590   5.363   2.404   0.174 -1.1375 -1.5498 -1.4102
    7CHTO   O81 2591   5.455   2.332   0.342 -0.2813  0.3236 -0.1062
    7CHTO  H202 2592   5.419   2.401   0.394  1.0988  0.1006  1.2013
    7CHTO  C119 2593   5.431   2.200   0.132  1.0626 -0.1088 -0.5586
    7CHTO  H223 2594   5.534   2.223   0.103  0.9097  0.3595 -0.7357
    7CHTO  C117 2595   5.351   2.180  -0.008 -1.2326  0.5393  0.4407
    7CHTO  H221 2596   5.381   2.094  -0.068 -0.7927  0.5185  0.6908
    7CHTO   N20 2597   5.363   2.303  -0.096  0.3870  0.2564 -0.4527
    7CHTO  H209 2598   5.306   2.292  -0.187  0.6398 -2.7315 -0.3014
    7CHTO  H210 2599   5.325   2.389  -0.041  0.2389  1.7278 -2.7800
    7CHTO   O80 2600   5.451   2.082   0.207  0.4749  0.3026 -0.5459
    7CHTO  C103 2601   5.507   1.945   0.125 -0.5033 -0.3434  0.9954
    7CHTO  H190 2602   5.434   1.913   0.051 -0.0416 -1.4424  1.0065
    7CHTO  C101 2603   5.647   1.950   0.052  0.2528 -0.0140 -0.1531
    7CHTO  H188 2604   5.724   1.974   0.125 -1.2267 -1.0987  1.8545
    7CHTO   O68 2605   5.636   2.056  -0.065 -0.0527  0.5285 -0.2489
    7CHTO  H168 2606   5.576   2.028  -0.131  0.7039  0.6803 -1.0171
    7CHTO   C99 2607   5.681   1.807  -0.004  0.2318 -0.1745 -0.0190
    7CHTO  H186 2608   5.607   1.778  -0.081 -0.1445 -1.5321  0.8338
    7CHTO   N17 2609   5.815   1.806  -0.074  0.3044 -0.1971  0.3764
    7CHTO  H174 2610   5.885   1.759  -0.007  0.0433 -0.6836  0.3068
    7CHTO  H175 2611   5.795   1.752  -0.165  1.8070 -0.0816 -0.0332
    7CHTO   C97 2612   5.670   1.699   0.103  0.5712 -0.0904 -0.2475
    7CHTO  H184 2613   5.750   1.718   0.176 -0.1688 -1.1962  0.8764
    7CHTO   O64 2614   5.546   1.711   0.160  0.1447  0.8232 -0.2290
    7CHTO  C104 2615   5.509   1.832   0.227 -0.3282 -0.4826 -0.6085
    7CHTO  H191 2616   5.578   1.857   0.308 -1.3609 -0.3511  0.2443
    7CHTO  C108 2617   5.368   1.815   0.293  0.1066  0.6995 -0.3797
    7CHTO   O71 2618   5.358   1.906   0.401  0.5047  0.8472 -0.6565
    7CHTO  H171 2619   5.276   1.949   0.406  0.2735  0.3270  0.1675
    7CHTO   O62 2620   5.673   1.558   0.070 -0.0886 -0.6362  0.0283
    7CHTO   C91 2621   5.616   1.506  -0.051 -0.3009  0.1986  0.1131
    7CHTO  H178 2622   5.649   1.570  -0.133  1.3783 -1.2770 -0.4056
    7CHTO   C92 2623   5.460   1.500  -0.047  0.0044 -0.4046  0.0184
    7CHTO  H179 2624   5.420   1.595  -0.008 -0.7508 -1.0924  0.9221
    7CHTO   O66 2625   5.405   1.476  -0.175  0.0245 -0.2110  0.1430
    7CHTO  H166 2626   5.314   1.495  -0.179 -0.0715 -0.5678  0.5639
    7CHTO   C93 2627   5.408   1.384   0.039 -1.1751 -0.6631 -0.0262
    7CHTO  H180 2628   5.310   1.352   0.001 -1.7475  1.3805 -0.3061
    7CHTO   N16 2629   5.370   1.421   0.177  0.2877  0.1232  0.5170
    7CHTO  H172 2630   5.448   1.482   0.221  0.5646 -0.1702  0.4341
    7CHTO  H173 2631   5.278   1.477   0.174 -0.0071 -0.4389 -1.6090
    7CHTO   C94 2632   5.506   1.254   0.043 -0.5431 -0.6126  0.6454
    7CHTO  H181 2633   5.574   1.253   0.128 -1.8920  3.7817  1.9454
    7CHTO   O61 2634   5.589   1.249  -0.069 -0.4393  0.1962  0.2357
    7CHTO   C95 2635   5.677   1.362  -0.084 -0.1900  0.5234  0.0146
    7CHTO  H182 2636   5.768   1.347  -0.026  0.3007 -1.2401 -1.1636
    7CHTO  C106 2637   5.721   1.356  -0.231 -0.4759 -0.5702  0.4601
    7CHTO   O69 2638   5.830   1.448  -0.248  0.0860  0.0671  0.2548
    7CHTO  H169 2639   5.906   1.417  -0.203  0.8751  1.2536 -0.2279
    7CHTO   O63 2640   5.423   1.126   0.044 -0.2013  0.4867 -0.1709
    7CHTO   C96 2641   5.483   1.021   0.147 -0.4155 -0.9118 -0.1711
    7CHTO  H183 2642   5.500   1.059   0.248  3.3954 -1.2014 -0.6213
    7CHTO   C98 2643   5.621   0.952   0.117 -0.6229  0.2299 -0.2492
    7CHTO  H185 2644   5.696   1.020   0.077 -0.9827  0.5628 -0.3614
    7CHTO   O67 2645   5.679   0.897   0.236  0.0640  0.5598  0.5477
    7CHTO  H167 2646   5.659   0.955   0.307 -0.4992 -0.4658  1.2351
    7CHTO  C102 2647   5.599   0.834   0.006 -0.4520  0.0875  0.5638
    7CHTO  H189 2648   5.691   0.774   0.010  1.0886  2.4295  1.9133
    7CHTO   N18 2649   5.607   0.897  -0.129  0.2812  0.0338 -0.5586
    7CHTO  H176 2650   5.700   0.951  -0.133  0.1035  0.4371  0.5838
    7CHTO  H177 2651   5.519   0.956  -0.148 -0.4452 -0.7613  0.2643
    7CHTO  C105 2652   5.474   0.747   0.041 -0.2199  0.4373  0.1250
    7CHTO  H192 2653   5.398   0.766  -0.035  1.5497  0.2631 -1.7376
    7CHTO   O65 2654   5.414   0.778   0.169 -0.1631  0.1192 -0.0533
    7CHTO  C100 2655   5.370   0.908   0.182  0.6108 -0.3391  0.2601
    7CHTO  H187 2656   5.286   0.915   0.112  1.0651 -3.2393 -0.6346
    7CHTO  C107 2657   5.311   0.918   0.319 -0.7750  0.0859 -0.3070
    7CHTO   O70 2658   5.237   1.042   0.337  0.3532  0.3983 -0.2745
    7CHTO  H170 2659   5.228   1.067   0.427  2.4068 -0.8134  0.2906
    7CHTO   O57 2660   5.518   0.607   0.027 -0.4635  0.6397  0.3313
    7CHTO   C85 2661   5.428   0.506  -0.022 -0.4560  0.2192  0.6601
    7CHTO  H157 2662   5.373   0.546  -0.110 -0.7961 -0.6466  0.4699
    7CHTO   C83 2663   5.314   0.469   0.073  0.2544 -0.0503  0.3223
    7CHTO  H155 2664   5.251   0.558   0.078 -0.2917 -0.1174 -3.6238
    7CHTO   O56 2665   5.354   0.440   0.207 -0.4915 -0.1880  0.2063
    7CHTO  H135 2666   5.393   0.511   0.255  0.4694  1.3843 -2.7735
    7CHTO   C81 2667   5.229   0.364   0.001 -0.0047 -0.1170 -0.2917
    7CHTO  H153 2668   5.193   0.412  -0.090 -1.3314 -0.8099 -0.1391
    7CHTO   N14 2669   5.106   0.329   0.073  0.2384  0.0317 -0.2546
    7CHTO  H141 2670   5.033   0.306  -0.002 -0.1114 -0.4797  0.2342
    7CHTO  H142 2671   5.066   0.391   0.151 -2.8699  0.0812 -1.7862
    7CHTO   C79 2672   5.309   0.235  -0.044  0.1409  1.1732 -0.2024
    7CHTO  H151 2673   5.240   0.176  -0.104 -1.3755  1.6596  1.0185
    7CHTO   O52 2674   5.421   0.278  -0.129  0.2630  0.4369  0.1142
    7CHTO   C86 2675   5.510   0.375  -0.067 -0.5559  0.3276 -0.2804
    7CHTO  H158 2676   5.546   0.320   0.023 -1.2078 -2.6340 -1.7687
    7CHTO   C90 2677   5.638   0.399  -0.149  0.1845 -0.0493 -0.3599
    7CHTO   O60 2678   5.684   0.262  -0.179  0.5571  0.2246  0.3535
    7CHTO  H138 2679   5.776   0.254  -0.164  0.3988  0.6433  1.6331
    7CHTO   O50 2680   5.358   0.138   0.055 -0.5373 -0.5371  0.0205
    7CHTO   C73 2681   5.410  -0.002   0.063  0.3643  0.2064  0.4459
    7CHTO  H145 2682   5.484  -0.022  -0.017  0.6768 -0.4234  0.8918
    7CHTO   C74 2683   5.298  -0.107   0.047  0.5009  0.2395  0.6179
    7CHTO  H146 2684   5.240  -0.090  -0.045  0.8755 -1.0068  0.1365
    7CHTO   O54 2685   5.362  -0.233   0.031 -0.1179  0.3535 -0.1013
    7CHTO  H133 2686   5.326  -0.302   0.082 -1.2666  0.8887 -0.1850
    7CHTO   C75 2687   5.200  -0.102   0.179  0.1673  0.6517 -0.3935
    7CHTO  H147 2688   5.150  -0.004   0.182  0.5529  0.7971  2.5411
    7CHTO   N13 2689   5.088  -0.206   0.188  0.2310  0.3317 -0.7537
    7CHTO  H139 2690   5.113  -0.283   0.261 -1.2343  0.3871 -0.1729
    7CHTO  H140 2691   4.993  -0.169   0.223 -0.7594 -1.6254 -1.2991
    7CHTO   C76 2692   5.298  -0.115   0.309 -0.0821 -0.1190 -0.8531
    7CHTO  H148 2693   5.341  -0.215   0.312 -1.1956 -0.6077 -0.6764
    7CHTO   O49 2694   5.405  -0.017   0.310 -0.0406 -0.8751 -0.8291
    7CHTO   C77 2695   5.482  -0.028   0.193 -0.0909 -0.3131 -1.3399
    7CHTO  H149 2696   5.525  -0.128   0.194  0.2376 -0.1729 -1.2202
    7CHTO   C88 2697   5.603   0.066   0.205  0.0338 -0.4524  0.0024
    7CHTO   O58 2698   5.567   0.185   0.280 -0.2555 -0.0055  0.3116
    7CHTO  H136 2699   5.495   0.241   0.255 -1.1318 -0.8939  0.7997
    7CHTO   O51 2700   5.218  -0.074   0.449  0.2177  0.0878  0.0974
    7CHTO   C78 2701   5.289  -0.114   0.579 -0.3224 -0.0548  0.5760
    7CHTO  H150 2702   5.400  -0.127   0.573 -0.0800  0.6304  3.1740
    7CHTO   C80 2703   5.229  -0.246   0.633  0.2618  0.6595  0.0784
    7CHTO  H152 2704   5.121  -0.236   0.658  0.2641 -0.5911  0.5970
    7CHTO   O55 2705   5.243  -0.337   0.524 -0.0043  0.0794  0.4274
    7CHTO  H134 2706   5.173  -0.399   0.532 -0.5754  0.4315 -1.5082
    7CHTO   C84 2707   5.298  -0.283   0.774 -0.2570 -0.4419 -0.1389
    7CHTO  H156 2708   5.405  -0.288   0.756 -0.5186 -0.6662 -1.7030
    7CHTO   N15 2709   5.254  -0.422   0.819 -0.0393 -0.3773  0.2243
    7CHTO  H143 2710   5.232  -0.474   0.728 -0.6651  2.9332 -1.5752
    7CHTO  H144 2711   5.165  -0.411   0.878 -1.1098  1.4789 -1.6831
    7CHTO   C87 2712   5.265  -0.168   0.876  0.1396  0.0735  0.1720
    7CHTO  H159 2713   5.157  -0.163   0.884  0.2036  4.5388 -0.3535
    7CHTO   O53 2714   5.320  -0.036   0.819 -0.7082 -0.2106 -0.3349
    7CHTO   C82 2715   5.272  -0.001   0.679  0.4977 -0.5203 -0.4314
    7CHTO  H154 2716   5.173   0.044   0.688  0.5675 -0.1590 -1.4219
    7CHTO   C89 2717   5.366   0.122   0.648  0.1197 -0.2671 -0.0946
    7CHTO   O59 2718   5.353   0.186   0.524 -0.2231  0.0864 -1.0795
    7CHTO  H137 2719   5.389   0.134   0.455  2.2634  1.8740 -1.1572
    7CHTO   O45 2720   5.342  -0.192   1.030  0.2629  0.1773  0.1138
    7CHTO   C67 2721   5.325  -0.095   1.129  0.0164 -0.1501 -0.4851
    7CHTO  H124 2722   5.343   0.004   1.087  0.0351 -0.0900 -0.3333
    7CHTO   C65 2723   5.179  -0.092   1.195  0.0461  0.2295  0.2178
    7CHTO  H122 2724   5.138  -0.193   1.202 -0.7751  0.5196 -0.2345
    7CHTO   O44 2725   5.096  -0.009   1.107 -0.1726 -0.2526 -0.2700
    7CHTO  H102 2726   5.106  -0.040   1.019  1.6707 -0.2809 -0.0715
    7CHTO   C63 2727   5.179  -0.047   1.354 -0.1447  0.0388 -0.0018
    7CHTO  H120 2728   5.211  -0.133   1.412 -0.2003 -0.1081 -0.1879
    7CHTO   N11 2729   5.038  -0.014   1.405  0.5078 -0.9917  0.4866
    7CHTO  H108 2730   4.997  -0.103   1.447 -0.1220 -1.2253 -0.6249
    7CHTO  H109 2731   4.975   0.028   1.330 -1.8230 -2.5152  1.5590
    7CHTO   C61 2732   5.291   0.065   1.361 -0.5147  0.6432  0.4753
    7CHTO  H118 2733   5.290   0.108   1.462 -1.7803  1.1019  0.2764
    7CHTO   O40 2734   5.419  -0.000   1.344 -0.4404  0.3111 -0.2109
    7CHTO   C68 2735   5.428  -0.114   1.249 -0.9676 -0.4606 -0.0271
    7CHTO  H125 2736   5.398  -0.203   1.308  1.6374 -0.7690  0.9000
    7CHTO   C72 2737   5.572  -0.144   1.207 -0.4494 -0.2469  0.2216
    7CHTO   O48 2738   5.638  -0.029   1.147  0.2960  0.6199 -0.2175
    7CHTO  H105 2739   5.731  -0.046   1.142  0.4138  0.6738  1.6415
    7CHTO   O38 2740   5.275   0.170   1.260  0.2046 -0.3973  0.6143
    7CHTO   C55 2741   5.329   0.303   1.280 -0.5002  0.0199  0.0121
    7CHTO  H112 2742   5.426   0.284   1.328  0.6170 -1.0724 -2.5713
    7CHTO   C56 2743   5.247   0.396   1.366  0.6581  0.5462  0.2030
    7CHTO  H113 2744   5.153   0.412   1.310  1.8319  1.1714 -1.6344
    7CHTO   O42 2745   5.219   0.339   1.492  0.1079  0.1829 -0.4056
    7CHTO  H100 2746   5.194   0.407   1.552  0.7440  1.2695 -1.3465
    7CHTO   C57 2747   5.323   0.531   1.385 -0.7058  0.3453  0.5165
    7CHTO  H114 2748   5.407   0.517   1.452 -0.7098 -0.7392  0.2996
    7CHTO   N10 2749   5.243   0.645   1.452 -0.3366 -0.0832 -0.9739
    7CHTO  H106 2750   5.175   0.607   1.527  2.9143 -0.0111  2.1237
    7CHTO  H107 2751   5.318   0.703   1.503  0.0549 -1.8499  0.5357
    7CHTO   C58 2752   5.368   0.583   1.249 -0.4400 -0.2820  0.1305
    7CHTO  H115 2753   5.277   0.610   1.191 -0.3448 -0.0954  0.0648
    7CHTO   O37 2754   5.447   0.483   1.178  0.4374 -0.1967  0.2281
    7CHTO   C59 2755   5.366   0.366   1.150 -0.7702 -0.4335  0.0704
    7CHTO  H116 2756   5.280   0.396   1.090  0.7383  0.4905 -1.7027
    7CHTO   C70 2757   5.444   0.268   1.066 -0.0699 -0.8455  0.7489
    7CHTO   O46 2758   5.476   0.333   0.944  0.1047 -0.0329  0.1716
    7CHTO  H103 2759   5.499   0.280   0.870  2.6836  1.6062 -0.2653
    7CHTO   O39 2760   5.467   0.710   1.275 -0.5199 -0.2182  0.8267
    7CHTO   C60 2761   5.595   0.720   1.210 -0.2526 -0.0483  0.6667
    7CHTO  H117 2762   5.631   0.620   1.189  0.7960  0.7637 -1.5181
    7CHTO   C62 2763   5.582   0.809   1.079 -1.4500  0.0687 -0.1580
    7CHTO  H119 2764   5.514   0.761   1.005 -0.1619  0.7569 -1.8327
    7CHTO   O43 2765   5.538   0.941   1.127  0.1012 -0.0841  0.3268
    7CHTO  H101 2766   5.530   0.992   1.049 -2.2185 -4.6707 -2.6319
    7CHTO   C66 2767   5.725   0.823   1.010  0.2457  0.3516  0.2739
    7CHTO  H123 2768   5.750   0.724   0.973 -0.3712 -0.1203  1.0971
    7CHTO   N12 2769   5.712   0.909   0.886 -0.6356 -0.2469  0.3601
    7CHTO  H110 2770   5.808   0.927   0.841 -0.7652  0.5671  0.4000
    7CHTO  H111 2771   5.665   1.004   0.907  0.5749  0.3390  0.4129
    7CHTO   C69 2772   5.846   0.878   1.102 -0.3235  0.1445 -0.2121
    7CHTO  H126 2773   5.839   0.989   1.110  0.2066  0.2199 -0.7825
    7CHTO   O41 2774   5.835   0.807   1.260  0.6833  0.0080 -0.4970
    7CHTO   C64 2775   5.696   0.784   1.309  0.5018  0.1472  0.1727
    7CHTO  H121 2776   5.648   0.876   1.348 -0.4683 -0.2987  0.0339
    7CHTO   C71 2777   5.721   0.696   1.429 -0.4380 -0.3241 -0.1383
    7CHTO   O47 2778   5.622   0.700   1.534 -0.3541 -0.5061 -0.2835
    7CHTO  H104 2779   5.615   0.615   1.573 -0.1901 -0.5548 -0.3581
    7CHTO   O34 2780   5.988   0.848   1.040  0.1295 -0.2205 -0.0135
    7CHTO   C49 2781   6.113   0.744   0.987 -0.3655 -0.3142  0.1921
    7CHTO   H91 2782   6.169   0.813   0.925 -0.3029 -1.7979 -1.4454
    7CHTO   C47 2783   6.054   0.628   0.905  0.6559  0.3016 -0.1751
    7CHTO   H89 2784   6.144   0.577   0.864  0.9932  1.1799 -0.5490
    7CHTO   O33 2785   5.981   0.675   0.795 -0.2646 -0.7015  0.2268
    7CHTO   H70 2786   6.024   0.745   0.751 -0.6660  0.6544  1.9173
    7CHTO   C45 2787   5.967   0.530   1.003  0.2186  0.1533  0.1051
    7CHTO   H87 2788   5.898   0.588   1.067  3.2552  3.7079  0.2924
    7CHTO    N8 2789   5.893   0.416   0.941  0.1052  0.2558  0.0928
    7CHTO   H75 2790   5.793   0.445   0.915  0.5313 -0.3960 -2.4995
    7CHTO   H76 2791   5.893   0.335   1.012  1.6532  0.7852  0.7226
    7CHTO   C43 2792   6.074   0.465   1.116 -0.5666 -0.0306  0.0770
    7CHTO   H85 2793   6.015   0.408   1.188  2.1433 -0.5195  1.9886
    7CHTO   O29 2794   6.152   0.571   1.176  0.3768 -0.3497  0.2497
    7CHTO   C50 2795   6.204   0.684   1.099 -0.1383  0.1473 -0.2275
    7CHTO   H92 2796   6.225   0.768   1.168 -0.1411 -0.5570  0.6391
    7CHTO   C54 2797   6.347   0.651   1.047  0.1034 -0.1247  0.3859
    7CHTO   O36 2798   6.446   0.659   1.157  0.2721  0.2503 -0.0108
    7CHTO   H72 2799   6.520   0.607   1.130 -0.1070 -2.2412  3.4344
    7CHTO   O27 2800   6.167   0.368   1.055  0.6174  0.4043  0.2081
    7CHTO   C37 2801   6.241   0.254   1.085 -0.8936 -0.3299  0.0665
    7CHTO   H79 2802   6.193   0.183   1.155 -0.3638 -1.2683 -0.5187
    7CHTO   C38 2803   6.251   0.165   0.955  0.2347  0.5853  0.3594
    7CHTO   H80 2804   6.279   0.233   0.874  0.3386  0.9581  0.7056
    7CHTO   O31 2805   6.131   0.094   0.935  0.5643  0.0702  1.0083
    7CHTO   H68 2806   6.153   0.035   0.866  0.1611  1.9416 -0.7949
    7CHTO   C39 2807   6.373   0.061   0.959  0.0181 -0.2963 -0.0622
    7CHTO   H81 2808   6.344  -0.010   1.037 -2.2230  1.2069  0.5218
    7CHTO    N7 2809   6.393  -0.006   0.826 -0.1497 -0.5103 -0.4515
    7CHTO   H73 2810   6.486   0.023   0.781  0.6160  0.1730  1.5286
    7CHTO   H74 2811   6.305  -0.007   0.763  0.2764  0.4448 -1.0796
    7CHTO   C40 2812   6.498   0.136   1.011 -0.0428 -0.2112  0.0008
    7CHTO   H82 2813   6.513   0.222   0.946  1.2226  0.0264  0.5872
    7CHTO   O26 2814   6.469   0.183   1.142 -0.2668  0.2944  0.5611
    7CHTO   C41 2815   6.384   0.297   1.138 -0.4236 -0.1045  0.1672
    7CHTO   H83 2816   6.424   0.378   1.076 -2.0923 -1.7928 -3.2300
    7CHTO   C52 2817   6.379   0.344   1.287 -0.2819 -0.2642 -0.6963
    7CHTO   O35 2818   6.508   0.379   1.342 -0.4365 -0.3222  0.2540
    7CHTO   H71 2819   6.535   0.461   1.304 -4.2118  0.1049 -1.7372
    7CHTO   O28 2820   6.610   0.055   1.036  0.0211  0.5869  0.2110
    7CHTO   C42 2821   6.741   0.105   0.988  0.9415  0.1739  0.1453
    7CHTO   H84 2822   6.808   0.021   1.007  0.9482 -0.5178 -2.6433
    7CHTO   C44 2823   6.797   0.219   1.074  0.0112  0.5952 -1.2721
    7CHTO   H86 2824   6.717   0.290   1.093  0.6558  0.4682  2.3358
    7CHTO   O32 2825   6.823   0.163   1.207 -0.0951 -0.3364  0.6298
    7CHTO   H69 2826   6.902   0.112   1.216 -0.9493 -2.0024 -0.8834
    7CHTO   C48 2827   6.920   0.295   1.012 -0.0424  0.2578  0.1197
    7CHTO   H90 2828   7.004   0.226   1.010  0.4749  0.8748  0.4086
    7CHTO    N9 2829   6.964   0.401   1.106  0.0814 -0.2079  0.0919
    7CHTO   H77 2830   7.070   0.416   1.098 -0.1338  1.1926 -0.4314
    7CHTO   H78 2831   6.914   0.496   1.092  0.2599  0.6106  4.5108
    7CHTO   C51 2832   6.879   0.341   0.870 -0.3256  0.1550  0.1666
    7CHTO   H93 2833   6.784   0.394   0.872  1.6047  3.6928  2.0125
    7CHTO   O30 2834   6.870   0.214   0.803 -0.2251  0.3138 -0.8974
    7CHTO   C46 2835   6.750   0.128   0.831  0.0534  0.0206  0.1566
    7CHTO   H88 2836   6.670   0.190   0.791 -0.5058  1.2436  3.0131
    7CHTO   C53 2837   6.767  -0.000   0.758  0.0245 -0.2158  0.1562
    7CHTO   O72 2838   6.729   0.012   0.623  0.6186 -0.3328  0.0668
    7CHTO  H199 2839   6.705  -0.073   0.591 -0.2954 -0.2461  0.4952
    7CHTO   O22 2840   6.975   0.423   0.797 -0.2746  0.0667  0.6302
    7CHTO   C31 2841   6.957   0.470   0.658 -0.7504 -0.3413  0.9532
    7CHTO   H59 2842   7.034   0.548   0.643 -2.0627  0.3058 -2.9267
    7CHTO   C29 2843   6.984   0.362   0.547  0.3061 -0.4778 -0.1988
    7CHTO   H57 2844   6.923   0.271   0.555 -0.6655 -0.2209 -3.7613
    7CHTO   O21 2845   7.114   0.298   0.573  0.3762  0.1940 -0.0244
    7CHTO   H37 2846   7.122   0.238   0.645 -0.2302  0.3129  0.1446
    7CHTO   C27 2847   6.968   0.429   0.403 -0.0753 -0.9451  0.2228
    7CHTO   H55 2848   7.050   0.502   0.388  1.2306 -2.3084  0.5603
    7CHTO    N5 2849   6.985   0.326   0.297  0.0311 -0.1381  0.3257
    7CHTO   H43 2850   7.068   0.343   0.230  0.1910  1.1342  0.8420
    7CHTO   H44 2851   6.894   0.322   0.238  0.3144 -0.8568 -0.0690
    7CHTO   C25 2852   6.831   0.498   0.390 -0.0131 -0.3280  0.2015
    7CHTO   H53 2853   6.760   0.422   0.427  1.8129 -1.8943  0.5646
    7CHTO   O17 2854   6.825   0.604   0.494  0.3694 -0.5519  0.2508
    7CHTO   C32 2855   6.819   0.545   0.629 -0.2975 -0.2899  0.0462
    7CHTO   H60 2856   6.738   0.473   0.641 -0.2593 -1.0011 -3.3271
    7CHTO   C36 2857   6.799   0.663   0.733  0.7324  0.2485 -0.1215
    7CHTO   O25 2858   6.898   0.760   0.716 -0.2513  0.2194  0.6149
    7CHTO   H40 2859   6.941   0.777   0.798  0.7025  1.5843 -0.1540
    7CHTO   O15 2860   6.804   0.562   0.249 -0.0701  0.2458 -0.1099
    7CHTO   C19 2861   6.748   0.659   0.154 -0.1038 -0.0885 -1.0355
    7CHTO   H47 2862   6.746   0.610   0.056 -1.8843 -2.2205  0.0102
    7CHTO   C20 2863   6.596   0.686   0.191 -0.5604 -0.4543 -0.2253
    7CHTO   H48 2864   6.588   0.724   0.294 -0.8421  0.2423 -0.5064
    7CHTO   O19 2865   6.536   0.556   0.182 -0.2527 -0.0601  0.5725
    7CHTO   H35 2866   6.451   0.564   0.221 -0.3905  1.4008  0.0070
    7CHTO   C21 2867   6.533   0.783   0.091  0.0047  0.1504 -0.0888
    7CHTO   H49 2868   6.543   0.744  -0.010 -0.4966 -0.7488  0.2018
    7CHTO    N4 2869   6.388   0.816   0.113 -1.1650 -0.2944 -0.5776
    7CHTO   H41 2870   6.332   0.799   0.022 -0.3866 -2.9257 -0.5902
    7CHTO   H42 2871   6.351   0.757   0.195  2.3306  0.0957  1.3786
    7CHTO   C22 2872   6.617   0.907   0.079  0.4877 -0.5393 -0.3974
    7CHTO   H50 2873   6.623   0.954   0.178 -1.5681  0.0782 -0.5439
    7CHTO   O14 2874   6.754   0.875   0.044  0.1807 -0.3063  0.0085
    7CHTO   C23 2875   6.824   0.791   0.136  0.3196 -0.4557  0.5661
    7CHTO   H51 2876   6.836   0.845   0.231  0.4746  0.2305  0.1580
    7CHTO   C34 2877   6.967   0.765   0.095  0.3609  0.7169 -0.0452
    7CHTO   O23 2878   7.044   0.706   0.200 -0.1498  0.1928 -0.4134
    7CHTO   H38 2879   7.075   0.774   0.258  0.6040  0.9969 -1.7401
    7CHTO   O16 2880   6.584   0.998  -0.026 -0.1734 -0.0880 -0.0755
    7CHTO   C24 2881   6.504   1.143   0.017  0.5075 -0.6759 -0.3693
    7CHTO   H52 2882   6.472   1.142   0.122 -0.3081 -0.4075 -0.6138
    7CHTO   C26 2883   6.380   1.169  -0.075  0.3453  0.1462  0.2839
    7CHTO   H54 2884   6.411   1.173  -0.182  1.3959 -0.1683  0.5684
    7CHTO   O20 2885   6.293   1.058  -0.055 -0.1902  0.5894  0.6893
    7CHTO   H36 2886   6.209   1.065  -0.097  0.5022 -0.3898 -0.8935
    7CHTO   C30 2887   6.310   1.303  -0.042  0.2766 -0.5330  0.8902
    7CHTO   H58 2888   6.264   1.304   0.058  0.3043  0.1521  0.8990
    7CHTO    N6 2889   6.193   1.322  -0.139  0.0302  0.2107  0.0784
    7CHTO   H45 2890   6.102   1.278  -0.103 -0.5500  0.2218 -1.3375
    7CHTO   H46 2891   6.171   1.427  -0.153  0.3741  0.2273 -0.3894
    7CHTO   C33 2892   6.414   1.417  -0.051 -1.0780 -0.7750 -0.6137
    7CHTO   H61 2893   6.451   1.438  -0.152  2.1729  0.5507  0.7862
    7CHTO   O18 2894   6.535   1.386   0.031  0.7571  0.0121  0.4818
    7CHTO   C28 2895   6.599   1.265   0.002  0.3301  0.0563  0.1854
    7CHTO   H56 2896   6.634   1.271  -0.102 -0.0875 -1.5040 -0.0600
    7CHTO   C35 2897   6.732   1.249   0.090  0.2765  0.4302  0.4407
    7CHTO   O24 2898   6.714   1.253   0.233 -0.0289  0.3713 -0.4147
    7CHTO   H39 2899   6.632   1.214   0.258  1.4097 -0.7315  2.8947
    7CHTO    O9 2900   6.356   1.542   0.002  0.3086 -1.3928  0.8199
    7CHTO   C13 2901   6.442   1.691  -0.054 -0.1616 -0.3441 -0.3328
    7CHTO   H26 2902   6.428   1.686  -0.164  0.5021  2.9517 -0.6039
    7CHTO   C11 2903   6.598   1.689  -0.010 -1.1854  0.0667  0.2995
    7CHTO   H24 2904   6.651   1.622  -0.080  0.2821 -1.3244  2.6870
    7CHTO    O8 2905   6.609   1.651   0.126 -0.4913 -0.0121 -0.0875
    7CHTO    H3 2906   6.696   1.625   0.151 -1.1284 -1.8078  0.2887
    7CHTO    C9 2907   6.654   1.832  -0.034  0.7495  0.8619 -0.3645
    7CHTO   H22 2908   6.619   1.855  -0.136  1.2328 -1.0219 -0.9807
    7CHTO    N2 2909   6.802   1.843  -0.051  0.3098 -0.3822  0.1226
    7CHTO   H10 2910   6.853   1.755  -0.088  0.7851  0.0638 -0.2852
    7CHTO   H11 2911   6.847   1.871   0.044 -0.8740 -0.6202  0.7666
    7CHTO    C7 2912   6.583   1.924   0.065 -0.0210 -0.4990 -0.4641
    7CHTO   H20 2913   6.590   2.020   0.010 -0.9239 -2.1383 -3.5902
    7CHTO    O4 2914   6.448   1.889   0.097 -0.1051 -0.2907  0.3700
    7CHTO   C14 2915   6.367   1.824  -0.005  0.6131 -0.5731  0.3133
    7CHTO   H27 2916   6.354   1.892  -0.091  0.2387 -0.7509  0.2269
    7CHTO   C18 2917   6.219   1.783   0.046  0.1359 -0.8342  0.2395
    7CHTO   O13 2918   6.219   1.725   0.178  0.5152 -0.2836 -0.3656
    7CHTO    H7 2919   6.157   1.761   0.238 -0.0388  2.2456 -2.3856
    7CHTO    O2 2920   6.676   1.927   0.222  0.4128  0.0444  0.0958
    7CHTO    C1 2921   6.661   2.039   0.304 -0.1922 -0.7326  0.4618
    7CHTO   H14 2922   6.707   2.011   0.401  2.2163  0.8160 -0.2015
    7CHTO    C2 2923   6.514   2.088   0.336 -0.4001  0.8314  0.0077
    7CHTO   H15 2924   6.461   2.108   0.241 -0.4436 -0.7660 -0.3238
    7CHTO    O6 2925   6.450   1.980   0.402  0.1689 -0.0700 -0.1069
    7CHTO    H1 2926   6.360   2.000   0.385  0.3249  0.2548 -0.5493
    7CHTO    C3 2927   6.513   2.220   0.426  0.2992  0.3704 -0.8478
    7CHTO   H16 2928   6.562   2.188   0.519 -1.1019  1.4728  0.3038
    7CHTO    N1 2929   6.378   2.271   0.458  0.0530  0.0168 -0.7371
    7CHTO    H8 2930   6.341   2.248   0.556  0.3275 -0.8238 -0.8277
    7CHTO    H9 2931   6.311   2.240   0.380 -0.1737  1.5240 -1.1642
    7CHTO    C4 2932   6.604   2.328   0.358  0.4186 -0.1667 -0.7315
    7CHTO   H17 2933   6.565   2.366   0.264  1.2135  0.2385 -0.9080
    7CHTO    O1 2934   6.731   2.274   0.332  0.5614  0.2986  0.1476
    7CHTO    C5 2935   6.746   2.157   0.249  0.1247  0.5585 -0.2308
    7CHTO   H18 2936   6.714   2.194   0.151  1.3943  2.0602 -0.0951
    7CHTO   C16 2937   6.900   2.125   0.247  0.0055  1.0019 -0.1866
    7CHTO   O11 2938   6.972   2.226   0.180  0.0460  0.4623  0.0798
    7CHTO    H5 2939   7.060   2.205   0.206  0.0829 -1.4901 -1.4692
    7CHTO    O3 2940   6.632   2.435   0.455  0.0781 -0.6951  0.1098
    7CHTO    C6 2941   6.648   2.572   0.397  0.3734 -0.4412  0.1161
    7CHTO   H19 2942   6.682   2.558   0.295  1.4219  0.8120  0.2777
    7CHTO    C8 2943   6.522   2.655   0.414  0.2739  0.3348 -0.2855
    7CHTO   H21 2944   6.492   2.664   0.518 -0.8930 -1.6033 -0.4213
    7CHTO    O7 2945   6.411   2.593   0.340  0.2814  0.1005  0.1322
    7CHTO    H2 2946   6.449   2.546   0.268 -1.4226  0.4791 -1.0474
    7CHTO   C12 2947   6.552   2.801   0.364 -0.2401 -0.1706 -0.9178
    7CHTO   H25 2948   6.571   2.797   0.254 -1.2925  0.6996 -1.1393
    7CHTO    N3 2949   6.431   2.887   0.372  0.4847 -0.0285 -0.1934
    7CHTO   H12 2950   6.452   2.990   0.397 -0.8688  0.6033 -1.5277
    7CHTO   H13 2951   6.378   2.893   0.278 -2.0973 -1.0845  1.1376
    7CHTO   C15 2952   6.678   2.860   0.441  0.5920 -0.2646  0.6007
    7CHTO   H28 2953   6.676   2.862   0.550 -0.1729 -2.1750  0.6421
    7CHTO   O10 2954   6.726   2.995   0.375 -0.2172  0.2596  0.0962
    7CHTO    H4 2955   6.809   3.018   0.411 -0.3796 -0.9921  1.2968
    7CHTO    O5 2956   6.786   2.773   0.411 -0.0554  0.3441 -0.1924
    7CHTO   C10 2957   6.772   2.642   0.465 -0.0612  0.1165 -0.1977
    7CHTO   H23 2958   6.764   2.642   0.574 -3.1766  0.2136 -0.3880
    7CHTO   C17 2959   6.897   2.562   0.444 -0.1443  0.0895 -0.3533
    7CHTO   O12 2960   6.994   2.627   0.527 -0.1605 -0.5532  0.2391
    7CHTO    H6 2961   7.062   2.566   0.547 -1.2391 -1.8286  0.0722
    8CHTO  H203 2962   7.578   7.908   1.815  0.1705 -0.6390  0.4163
    8CHTO   O82 2963   7.532   7.975   1.768  0.6023 -0.5799  0.0708
    8CHTO  C123 2964   7.407   7.939   1.706  0.0841  0.8233 -0.2464
    8CHTO  H227 2965   7.411   7.835   1.670  1.4821  1.3678 -1.7166
    8CHTO   O77 2966   7.313   7.935   1.818  0.2759 -0.0313 -0.4329
    8CHTO  C118 2967   7.181   7.899   1.780 -0.0089  0.0878  0.0807
    8CHTO  H222 2968   7.182   7.806   1.720 -1.3427  1.3164 -1.9104
    8CHTO  C125 2969   7.089   7.890   1.901 -0.8404  0.5053 -0.3043
    8CHTO   O84 2970   7.113   7.775   1.978  0.1381 -0.3793  0.2195
    8CHTO  H205 2971   7.205   7.760   1.986 -0.0774 -2.1846 -0.5749
    8CHTO  C114 2972   7.126   8.005   1.684 -0.1793 -1.0082  0.8630
    8CHTO  H218 2973   7.117   8.103   1.732  0.2279  0.3742 -1.8073
    8CHTO  C116 2974   7.216   8.023   1.557  0.4876  0.9010 -0.9493
    8CHTO  H220 2975   7.196   7.939   1.488 -1.9761 -1.1873  2.1344
    8CHTO   O79 2976   7.170   8.133   1.479  0.0651 -0.3308 -0.2481
    8CHTO  H201 2977   7.211   8.212   1.509  0.4355  0.0598 -1.7379
    8CHTO  C120 2978   7.370   8.040   1.592 -0.2351  0.7819 -0.6199
    8CHTO  H224 2979   7.375   8.141   1.637  1.6364 -0.0968  1.2254
    8CHTO   N21 2980   7.460   8.041   1.469  0.1496 -0.5463  0.1216
    8CHTO  H211 2981   7.543   8.106   1.494  0.9844 -1.2978 -0.6660
    8CHTO  H212 2982   7.399   8.074   1.387  0.4322  2.0620  0.9180
    8CHTO   O75 2983   6.991   7.958   1.657  0.1278 -0.4856  0.1218
    8CHTO  C112 2984   6.900   8.063   1.600 -0.3609 -0.4405  0.4632
    8CHTO  H216 2985   6.951   8.143   1.545  1.9564 -1.5081  1.0131
    8CHTO   O73 2986   6.823   8.117   1.706  0.2211  0.1708 -0.4492
    8CHTO  C113 2987   6.737   8.228   1.669  0.0864 -0.3398  0.0800
    8CHTO  H217 2988   6.797   8.307   1.619 -1.0756  0.4071 -0.1527
    8CHTO  C124 2989   6.691   8.292   1.798 -0.4417  0.4200  0.4049
    8CHTO   O83 2990   6.592   8.214   1.870 -0.5247  0.7383  0.0122
    8CHTO  H204 2991   6.526   8.189   1.808 -1.2970  0.5587  0.8963
    8CHTO  C109 2992   6.632   8.179   1.569 -0.3944  0.3949 -0.3434
    8CHTO  H213 2993   6.570   8.103   1.620  0.0630 -0.1578 -0.6061
    8CHTO  C110 2994   6.701   8.120   1.441  0.0731  0.0826  0.1813
    8CHTO  H214 2995   6.758   8.202   1.397  0.1144 -0.3073 -0.5053
    8CHTO   O78 2996   6.605   8.063   1.349  0.1084 -0.0303 -0.1678
    8CHTO  H200 2997   6.553   8.133   1.315 -0.3184  0.1645  0.8868
    8CHTO  C111 2998   6.806   8.007   1.488  0.5317 -1.2361  0.1645
    8CHTO  H215 2999   6.752   7.922   1.531  0.8089 -2.6590 -2.2182
    8CHTO   N19 3000   6.891   7.954   1.378  0.4987 -0.3568 -0.4322
    8CHTO  H207 3001   6.844   7.878   1.317  0.5141 -0.7128 -0.0043
    8CHTO  H208 3002   6.946   8.019   1.312  0.1622  0.8832  0.4821
    8CHTO   O74 3003   6.550   8.290   1.533 -0.5412 -0.4154 -0.0427
    8CHTO  C115 3004   6.405   8.280   1.498  0.0199  1.0201 -0.7022
    8CHTO  H219 3005   6.372   8.178   1.476  1.1730  0.7124 -1.0218
    8CHTO   O76 3006   6.314   8.326   1.605 -0.0817 -0.0936  0.3931
    8CHTO  C122 3007   6.295   8.464   1.625  0.3086  0.4258  0.2773
    8CHTO  H226 3008   6.385   8.497   1.676  1.7082 -0.9444 -1.2475
    8CHTO  C126 3009   6.170   8.496   1.727  0.6549 -0.2575 -0.0569
    8CHTO   O85 3010   6.192   8.464   1.869 -0.6975 -0.0312 -0.3831
    8CHTO  H206 3011   6.280   8.432   1.880 -1.0679 -1.0086 -0.2018
    8CHTO  C121 3012   6.266   8.555   1.500  0.3607 -0.3833 -0.7307
    8CHTO  H225 3013   6.168   8.529   1.455  0.7097 -0.7512 -1.2855
    8CHTO   O81 3014   6.280   8.696   1.536  0.2719  0.4126 -0.4419
    8CHTO  H202 3015   6.221   8.722   1.604  2.7714 -1.4162  2.5937
    8CHTO  C119 3016   6.379   8.516   1.397 -0.1502  0.2164 -0.2342
    8CHTO  H223 3017   6.356   8.565   1.302 -3.0076  1.0425  0.8402
    8CHTO  C117 3018   6.383   8.362   1.368  0.3682  0.5732 -0.1909
    8CHTO  H221 3019   6.468   8.334   1.305 -0.0135  0.9292 -0.8633
    8CHTO   N20 3020   6.268   8.319   1.282  0.1793 -0.2397 -0.1939
    8CHTO  H209 3021   6.276   8.212   1.285  3.7323 -0.0578 -0.1127
    8CHTO  H210 3022   6.291   8.353   1.182 -0.2215 -1.9486 -0.8834
    8CHTO   O80 3023   6.531   8.572   1.426 -0.0854  0.2332 -0.4490
    8CHTO  C103 3024   6.554   8.719   1.435 -0.4377 -0.0859 -0.3804
    8CHTO  H190 3025   6.465   8.776   1.410 -0.7614  0.5269  1.9987
    8CHTO  C101 3026   6.628   8.772   1.569  0.3208 -0.3984 -0.3373
    8CHTO  H188 3027   6.712   8.709   1.598 -1.2439 -2.4848 -0.2032
    8CHTO   O68 3028   6.531   8.754   1.673  0.1540 -0.1985  0.1072
    8CHTO  H168 3029   6.525   8.667   1.708  0.0485  0.0171  0.6200
    8CHTO   C99 3030   6.670   8.925   1.564  0.0553 -0.5371  0.5526
    8CHTO  H186 3031   6.577   8.987   1.562  0.3854 -0.0615 -0.5682
    8CHTO   N17 3032   6.748   8.972   1.681  0.1516 -0.0566 -0.0747
    8CHTO  H174 3033   6.680   9.029   1.742 -0.6118  0.7699 -1.6659
    8CHTO  H175 3034   6.784   8.889   1.741 -1.7466 -0.7879  0.0837
    8CHTO   C97 3035   6.744   8.944   1.423 -0.2736 -0.2535 -0.6545
    8CHTO  H184 3036   6.845   8.903   1.432 -1.4223 -2.6551  2.2983
    8CHTO   O64 3037   6.672   8.886   1.315 -0.3238 -0.3183  0.3462
    8CHTO  C104 3038   6.662   8.746   1.322  0.6117  0.5411  0.3486
    8CHTO  H191 3039   6.750   8.683   1.335 -1.6680 -3.2168 -1.7315
    8CHTO  C108 3040   6.610   8.706   1.183 -0.4986  0.8147  0.2248
    8CHTO   O71 3041   6.713   8.716   1.085  0.4198 -0.1597 -0.6824
    8CHTO  H171 3042   6.780   8.652   1.100  0.6951  0.5894  1.4033
    8CHTO   O62 3043   6.743   9.081   1.381 -0.4355 -0.3133 -0.0123
    8CHTO   C91 3044   6.860   9.148   1.325  0.3262 -0.0848  0.1954
    8CHTO  H178 3045   6.945   9.091   1.363  1.0514 -0.2067 -1.5486
    8CHTO   C92 3046   6.870   9.283   1.385 -0.2075 -0.0043  0.2171
    8CHTO  H179 3047   6.850   9.280   1.493 -0.6566 -0.9805  0.1133
    8CHTO   O66 3048   7.002   9.335   1.384  0.0974  0.3801  0.0859
    8CHTO  H166 3049   7.052   9.300   1.455 -0.7195  2.4081  1.7134
    8CHTO   C93 3050   6.785   9.396   1.316  0.7421  0.0046  0.3181
    8CHTO  H180 3051   6.824   9.497   1.335  0.1620  0.2562  0.1993
    8CHTO   N16 3052   6.651   9.407   1.377  0.5197 -0.1573  0.2921
    8CHTO  H172 3053   6.603   9.493   1.333 -0.1282 -0.2432  0.8210
    8CHTO  H173 3054   6.677   9.431   1.479 -2.0207  0.8371  0.7521
    8CHTO   C94 3055   6.774   9.374   1.158  0.3588 -0.0492  0.5026
    8CHTO  H181 3056   6.679   9.329   1.129 -0.7584  1.8335  1.1713
    8CHTO   O61 3057   6.879   9.283   1.116 -0.0343 -0.1585  0.1500
    8CHTO   C95 3058   6.865   9.146   1.162 -0.3881 -0.3968  0.3414
    8CHTO  H182 3059   6.778   9.100   1.115  0.0690  1.6586 -2.6519
    8CHTO  C106 3060   6.986   9.069   1.124 -0.3721 -0.6077 -0.0425
    8CHTO   O69 3061   6.970   8.929   1.145  0.1900 -0.0841  0.0491
    8CHTO  H169 3062   6.937   8.901   1.062  0.3411 -0.0113 -0.0367
    8CHTO   O63 3063   6.788   9.515   1.077 -0.0905 -0.2958 -0.4269
    8CHTO   C96 3064   6.699   9.514   0.947  0.0846 -0.1721 -0.2651
    8CHTO  H183 3065   6.631   9.429   0.955  1.0717 -0.9188  0.3471
    8CHTO   C98 3066   6.768   9.488   0.807  0.1532 -0.7274 -0.5540
    8CHTO  H185 3067   6.851   9.559   0.800 -2.0745  1.9321 -0.8505
    8CHTO   O67 3068   6.831   9.360   0.819 -0.5362  0.1536  0.3245
    8CHTO  H167 3069   6.775   9.291   0.789  1.8723 -1.2552 -1.1046
    8CHTO  C102 3070   6.676   9.503   0.681  0.5218 -0.5618  0.1897
    8CHTO  H189 3071   6.625   9.406   0.670 -1.2767  0.4710 -0.8770
    8CHTO   N18 3072   6.745   9.526   0.551  0.2806 -0.6619 -0.1881
    8CHTO  H176 3073   6.822   9.451   0.538  1.9660  1.3667 -2.5415
    8CHTO  H177 3074   6.788   9.625   0.560 -0.1951 -0.1754 -2.8172
    8CHTO  C105 3075   6.558   9.606   0.714  0.2486 -0.0211  0.4372
    8CHTO  H192 3076   6.534   9.661   0.624 -0.8900  1.5739  1.6914
    8CHTO   O65 3077   6.594   9.704   0.815 -0.4465  0.3124 -0.3256
    8CHTO  C100 3078   6.613   9.653   0.948 -0.3616  0.6322 -0.0619
    8CHTO  H187 3079   6.681   9.725   0.996 -0.1117  0.0156  0.5099
    8CHTO  C107 3080   6.478   9.656   1.028 -0.0983 -0.4566  0.7915
    8CHTO   O70 3081   6.511   9.616   1.157 -0.2964 -0.6217  0.2866
    8CHTO  H170 3082   6.430   9.595   1.198 -1.7607 -0.6405 -2.4779
    8CHTO   O57 3083   6.418   9.525   0.763 -0.1954 -0.1142  0.0382
    8CHTO   C85 3084   6.300   9.565   0.695 -0.5649 -0.5968  0.0104
    8CHTO  H157 3085   6.322   9.647   0.624  0.7165 -0.7451  0.2235
    8CHTO   C83 3086   6.190   9.604   0.802  0.7275  0.5417  0.2215
    8CHTO  H155 3087   6.238   9.691   0.847  5.0639  0.4901 -3.9108
    8CHTO   O56 3088   6.161   9.502   0.906  0.5978 -0.0939 -0.1154
    8CHTO  H135 3089   6.236   9.461   0.946  0.4305 -1.0736 -0.7860
    8CHTO   C81 3090   6.069   9.652   0.722 -0.1282 -0.5743 -0.1616
    8CHTO  H153 3091   6.097   9.729   0.651 -2.9306 -0.6954 -1.5034
    8CHTO   N14 3092   5.965   9.718   0.805  0.1290 -0.2274 -0.1650
    8CHTO  H141 3093   5.883   9.759   0.750 -0.6390  1.5298  2.2307
    8CHTO  H142 3094   6.014   9.798   0.857 -0.2100 -0.6873  0.8591
    8CHTO   C79 3095   6.009   9.524   0.640  0.7968  0.8493  0.4622
    8CHTO  H151 3096   5.932   9.565   0.574  1.2003  1.7233  0.5293
    8CHTO   O52 3097   6.110   9.463   0.552 -0.5641 -0.1535 -0.3372
    8CHTO   C86 3098   6.237   9.439   0.618  0.0731  0.8154 -0.3406
    8CHTO  H158 3099   6.205   9.360   0.688  1.8717  0.3206 -0.0475
    8CHTO   C90 3100   6.343   9.370   0.530  0.3799  0.0242  0.2006
    8CHTO   O60 3101   6.386   9.458   0.425 -0.4483 -0.2161  0.4256
    8CHTO  H138 3102   6.339   9.539   0.423 -1.3912 -0.7657  0.0154
    8CHTO   O50 3103   5.945   9.420   0.719  0.1107  0.4278  0.1909
    8CHTO   C73 3104   5.831   9.332   0.754  0.2212  0.5401 -0.0104
    8CHTO  H145 3105   5.801   9.275   0.665  1.3736  1.2574 -0.8745
    8CHTO   C74 3106   5.709   9.416   0.817 -0.7271  0.0877  0.4269
    8CHTO  H146 3107   5.670   9.488   0.744  0.6181  1.5090  1.0720
    8CHTO   O54 3108   5.602   9.319   0.829 -0.1569  0.0460 -0.2146
    8CHTO  H133 3109   5.641   9.235   0.846  3.0622  1.1243 -1.7691
    8CHTO   C75 3110   5.744   9.484   0.958 -0.2211  0.0192 -0.5592
    8CHTO  H147 3111   5.821   9.559   0.935  0.0530 -0.1360 -0.1515
    8CHTO   N13 3112   5.632   9.553   1.020  0.1756 -0.0280  0.1625
    8CHTO  H139 3113   5.561   9.485   1.065  1.4833 -0.6347  1.3483
    8CHTO  H140 3114   5.656   9.633   1.088 -1.2922  1.1641 -0.6850
    8CHTO   C76 3115   5.812   9.380   1.058 -0.3605  0.3165 -0.4621
    8CHTO  H148 3116   5.743   9.310   1.104 -0.2865 -0.4849 -1.5543
    8CHTO   O49 3117   5.916   9.297   0.991 -0.9166 -0.5475 -0.3001
    8CHTO   C77 3118   5.872   9.230   0.872 -0.7173 -0.1760 -0.1877
    8CHTO  H149 3119   5.787   9.170   0.900 -0.6221 -0.2977 -0.1620
    8CHTO   C88 3120   5.990   9.143   0.823 -0.0155 -0.0157 -0.1078
    8CHTO   O58 3121   5.930   9.014   0.744  0.3181  0.1306 -0.2451
    8CHTO  H136 3122   5.871   8.959   0.792  0.2168  0.0931 -0.4085
    8CHTO   O51 3123   5.883   9.466   1.176  0.3012  0.4540  0.2892
    8CHTO   C78 3124   5.881   9.369   1.303 -0.5355 -0.0819 -0.1975
    8CHTO  H150 3125   5.866   9.262   1.277  0.0300 -0.3269  0.4910
    8CHTO   C80 3126   5.782   9.415   1.414 -0.8130  0.3889  0.5089
    8CHTO  H152 3127   5.807   9.520   1.438  2.6034 -0.0992 -0.7035
    8CHTO   O55 3128   5.647   9.413   1.356  0.3034 -0.0167 -0.0849
    8CHTO  H134 3129   5.635   9.335   1.306  0.9692  0.3705 -0.8664
    8CHTO   C84 3130   5.794   9.319   1.540 -0.6896  0.5937 -0.4612
    8CHTO  H156 3131   5.761   9.217   1.519 -0.7972 -0.1920  3.3351
    8CHTO   N15 3132   5.709   9.368   1.657  0.2229 -0.4154 -0.2574
    8CHTO  H143 3133   5.703   9.475   1.656 -0.1159 -0.4328 -0.2409
    8CHTO  H144 3134   5.610   9.330   1.650  0.5335 -0.9476 -1.7612
    8CHTO   C87 3135   5.941   9.320   1.585  0.6852 -0.4675  0.2730
    8CHTO  H159 3136   5.979   9.415   1.624 -0.2733 -0.3382  0.8967
    8CHTO   O53 3137   6.026   9.272   1.466 -0.8434  0.0302  0.4205
    8CHTO   C82 3138   6.023   9.374   1.363  0.1396  0.1339 -0.1007
    8CHTO  H154 3139   6.039   9.473   1.405  0.4321  0.4022 -0.8513
    8CHTO   C89 3140   6.144   9.352   1.261 -0.0672  0.6976  0.5041
    8CHTO   O59 3141   6.147   9.223   1.195 -0.5486 -0.1405  0.0751
    8CHTO  H137 3142   6.232   9.205   1.159  0.0612  0.0570  1.4196
    8CHTO   O45 3143   5.964   9.191   1.713  0.0396 -0.0375  0.2791
    8CHTO   C67 3144   6.078   9.201   1.797 -0.3279 -0.0662  0.2262
    8CHTO  H124 3145   6.082   9.115   1.863  0.1240  0.8542  1.4335
    8CHTO   C65 3146   6.211   9.206   1.712  0.0558 -0.5639 -0.2085
    8CHTO  H122 3147   6.186   9.258   1.620 -2.0276  0.8490  1.1044
    8CHTO   O44 3148   6.232   9.067   1.681 -0.3516  0.1350  0.5397
    8CHTO  H102 3149   6.321   9.061   1.651 -0.4234  1.4340  0.0241
    8CHTO   C63 3150   6.330   9.285   1.773 -0.7597 -0.3128 -0.0324
    8CHTO  H120 3151   6.310   9.391   1.758 -1.8738 -0.1808  2.2140
    8CHTO   N11 3152   6.470   9.256   1.713 -0.0060  0.0045 -0.1530
    8CHTO  H108 3153   6.465   9.294   1.614  0.7092 -1.2263 -0.6861
    8CHTO  H109 3154   6.547   9.291   1.779  2.3072 -2.6644 -1.2744
    8CHTO   C61 3155   6.318   9.267   1.929 -0.4917 -0.3552 -0.2593
    8CHTO  H118 3156   6.397   9.328   1.973 -1.3329  0.1774  0.5317
    8CHTO   O40 3157   6.193   9.323   1.983  0.2384  0.2945 -0.0639
    8CHTO   C68 3158   6.078   9.331   1.885  0.4270 -0.6690 -0.0789
    8CHTO  H125 3159   6.092   9.428   1.833  2.3597 -0.8397  0.0787
    8CHTO   C72 3160   5.950   9.331   1.969 -0.5554 -0.1473  0.1445
    8CHTO   O48 3161   5.911   9.458   2.011 -0.4646  0.0381 -0.0979
    8CHTO  H105 3162   5.898   9.507   1.932  0.2362  0.2607 -0.0780
    8CHTO   O38 3163   6.330   9.129   1.963  0.3207  0.1482  0.5071
    8CHTO   C55 3164   6.394   9.104   2.087 -0.3177  0.3892  0.5094
    8CHTO  H112 3165   6.468   9.185   2.098  0.1604  0.2417 -1.3759
    8CHTO   C56 3166   6.464   8.962   2.090  0.3643 -0.3923  0.2684
    8CHTO  H113 3167   6.524   8.943   1.999 -0.6628 -1.4865 -0.1910
    8CHTO   O42 3168   6.558   8.965   2.198  0.3342 -0.0975 -0.0988
    8CHTO  H100 3169   6.589   8.878   2.215  2.1514  0.4277 -0.6915
    8CHTO   C57 3170   6.353   8.847   2.104  0.3840 -0.3705 -0.2191
    8CHTO  H114 3171   6.406   8.772   2.162  1.7136 -0.9545 -2.1264
    8CHTO   N10 3172   6.319   8.772   1.980 -0.7076  0.2309  0.1373
    8CHTO  H106 3173   6.363   8.814   1.891 -2.1329  0.0458 -0.6580
    8CHTO  H107 3174   6.351   8.670   1.993 -1.6571  0.0013  0.7667
    8CHTO   C58 3175   6.231   8.896   2.186  0.4601  0.3146 -0.0107
    8CHTO  H115 3176   6.147   8.934   2.124 -0.0354 -2.3164 -1.0196
    8CHTO   O37 3177   6.276   8.989   2.279  0.1353 -0.1782  0.9674
    8CHTO   C59 3178   6.300   9.122   2.215 -0.6293  0.1164 -0.0440
    8CHTO  H116 3179   6.210   9.178   2.188 -0.2542 -0.4411 -2.6283
    8CHTO   C70 3180   6.364   9.214   2.312 -0.3208 -0.7691  0.1293
    8CHTO   O46 3181   6.275   9.222   2.423  0.2678  0.2624  0.5754
    8CHTO  H103 3182   6.316   9.188   2.500 -0.1564  1.1787  1.2218
    8CHTO   O39 3183   6.154   8.769   2.259 -0.2164 -0.0896  0.1706
    8CHTO   C60 3184   6.010   8.775   2.255  0.2317  0.0822 -0.1052
    8CHTO  H117 3185   5.974   8.868   2.211  2.6253  1.1927  0.2137
    8CHTO   C62 3186   5.952   8.666   2.154 -0.0153 -0.2710  0.0009
    8CHTO  H119 3187   6.005   8.680   2.057 -1.2396 -1.1921 -0.8160
    8CHTO   O43 3188   5.983   8.534   2.204  0.0592 -0.1488  0.0377
    8CHTO  H101 3189   5.914   8.473   2.186 -0.3399  0.4415 -0.4373
    8CHTO   C66 3190   5.792   8.699   2.139 -1.2084  0.4746 -0.0075
    8CHTO  H123 3191   5.780   8.800   2.102  0.3510  1.6145  2.5097
    8CHTO   N12 3192   5.736   8.612   2.035  0.3807  0.1350 -0.2941
    8CHTO  H110 3193   5.632   8.641   2.028  0.6876  2.1810  2.5168
    8CHTO  H111 3194   5.786   8.633   1.942  0.4479 -0.0086 -0.2893
    8CHTO   C69 3195   5.721   8.672   2.280  0.5574  0.3810  0.3196
    8CHTO  H126 3196   5.731   8.562   2.296  2.0702  0.3642 -0.6107
    8CHTO   O41 3197   5.791   8.763   2.407 -0.0911  0.5133  0.3787
    8CHTO   C64 3198   5.951   8.769   2.401 -0.2219  0.0568 -0.7923
    8CHTO  H121 3199   5.987   8.676   2.450 -1.9090  1.1865  2.7830
    8CHTO   C71 3200   6.005   8.884   2.489 -0.3062 -0.1052 -0.7079
    8CHTO   O47 3201   6.006   8.855   2.628 -0.1796 -0.3419  0.0706
    8CHTO  H104 3202   5.920   8.831   2.655 -0.2387 -2.6818 -1.9248
    8CHTO   O34 3203   5.569   8.720   2.269 -0.3012  0.0180 -0.3338
    8CHTO   C49 3204   5.495   8.839   2.323  0.3058 -0.4878  0.2899
    8CHTO   H91 3205   5.523   8.837   2.429  0.0084  1.3030  0.4235
    8CHTO   C47 3206   5.344   8.807   2.308 -0.2964  0.5602 -0.1002
    8CHTO   H89 3207   5.288   8.891   2.354 -3.9417 -1.7767 -0.1416
    8CHTO   O33 3208   5.303   8.688   2.379  0.0368 -0.8249 -0.3064
    8CHTO   H70 3209   5.315   8.662   2.468  0.1527 -1.1595 -0.4230
    8CHTO   C45 3210   5.302   8.808   2.152  0.0250 -0.0046  0.3192
    8CHTO   H87 3211   5.355   8.726   2.102 -0.9797 -0.1581 -0.4924
    8CHTO    N8 3212   5.160   8.778   2.131  0.5983  0.4335  0.2154
    8CHTO   H75 3213   5.155   8.704   2.053  0.9970  0.2363  0.3761
    8CHTO   H76 3214   5.126   8.738   2.225 -1.3896 -1.0127 -1.0639
    8CHTO   C43 3215   5.347   8.954   2.091 -0.4063 -0.0042 -0.8718
    8CHTO   H85 3216   5.327   8.941   1.984 -1.5856 -0.6396 -0.5760
    8CHTO   O29 3217   5.489   8.987   2.116 -0.3912  0.2746  0.2679
    8CHTO   C50 3218   5.542   8.971   2.248 -0.1871 -0.3651  0.6039
    8CHTO   H92 3219   5.650   8.959   2.232 -0.2310  1.2305 -1.1605
    8CHTO   C54 3220   5.525   9.097   2.340 -0.1873 -0.0798 -0.1999
    8CHTO   O36 3221   5.621   9.203   2.304  0.2354 -1.1249 -0.6682
    8CHTO   H72 3222   5.579   9.268   2.251  0.7223  1.7517  2.3665
    8CHTO   O27 3223   5.265   9.062   2.134  0.1192  0.3408 -0.0644
    8CHTO   C37 3224   5.211   9.162   2.045 -0.1642  0.1305  0.3024
    8CHTO   H79 3225   5.221   9.125   1.941  0.0521 -0.7487  0.6285
    8CHTO   C38 3226   5.057   9.175   2.070  0.1801  1.0140  0.4134
    8CHTO   H80 3227   5.044   9.164   2.178 -2.0970  3.2451  0.4131
    8CHTO   O31 3228   4.996   9.064   2.006  0.7317 -0.0126 -0.2123
    8CHTO   H68 3229   5.002   9.077   1.913  1.3413 -1.1396 -0.3433
    8CHTO   C39 3230   4.988   9.311   2.015 -0.6623  0.2936 -0.4954
    8CHTO   H81 3231   4.951   9.287   1.915 -0.2244  1.5825 -0.9745
    8CHTO    N7 3232   4.870   9.350   2.093 -0.1491  0.2244 -0.0856
    8CHTO   H73 3233   4.901   9.372   2.194 -3.7907  2.3612  0.6313
    8CHTO   H74 3234   4.776   9.304   2.064  0.2653 -0.4014 -0.4589
    8CHTO   C40 3235   5.095   9.424   2.007 -0.3920  0.5400  0.7480
    8CHTO   H82 3236   5.108   9.460   2.109  3.2465 -1.2923  1.0170
    8CHTO   O26 3237   5.220   9.375   1.962 -0.2495 -0.4353  0.0067
    8CHTO   C41 3238   5.288   9.288   2.056 -0.2791  0.0614  0.1984
    8CHTO   H83 3239   5.274   9.320   2.161 -1.9778 -0.1790  0.0527
    8CHTO   C52 3240   5.440   9.268   2.023  1.4212 -0.1917 -0.1396
    8CHTO   O35 3241   5.515   9.411   2.004 -0.0756  0.4062  0.4038
    8CHTO   H71 3242   5.524   9.445   2.091  0.4578 -2.9564  1.7127
    8CHTO   O28 3243   5.047   9.523   1.923  0.2459 -0.1733 -0.4932
    8CHTO   C42 3244   5.041   9.561   1.777 -0.4424 -0.0660  0.1862
    8CHTO   H84 3245   5.068   9.667   1.780 -1.2391  0.1411  0.0778
    8CHTO   C44 3246   4.898   9.559   1.713  0.3668 -0.4599 -0.2582
    8CHTO   H86 3247   4.854   9.461   1.731  0.8810 -0.4134  1.3497
    8CHTO   O32 3248   4.830   9.659   1.791  0.4094 -0.4653  0.2680
    8CHTO   H69 3249   4.824   9.631   1.880 -1.4227  0.0106  0.3155
    8CHTO   C48 3250   4.894   9.603   1.563 -0.4813  0.7925 -0.1515
    8CHTO   H90 3251   4.937   9.702   1.555 -0.3093  0.6296 -1.4173
    8CHTO    N9 3252   4.757   9.609   1.504  0.2804 -0.2024  0.6633
    8CHTO   H77 3253   4.713   9.706   1.522 -1.0767 -0.3943 -1.3791
    8CHTO   H78 3254   4.693   9.532   1.545 -2.7006  2.3085  0.9236
    8CHTO   C51 3255   4.996   9.521   1.485 -0.1258  0.0709 -0.2535
    8CHTO   H93 3256   4.963   9.417   1.481  3.1438 -1.0239 -0.0581
    8CHTO   O30 3257   5.127   9.535   1.545  0.1641  0.2856 -0.2438
    8CHTO   C46 3258   5.144   9.490   1.682  0.4041  0.2764  0.4829
    8CHTO   H88 3259   5.128   9.383   1.668  1.8977  0.0640  0.3303
    8CHTO   C53 3260   5.290   9.513   1.717 -0.1435 -0.7047 -0.4212
    8CHTO   O72 3261   5.367   9.395   1.703 -0.0269  1.3536 -0.3980
    8CHTO  H199 3262   5.452   9.421   1.672  0.3378 -0.4855 -0.9851
    8CHTO   O22 3263   5.020   9.573   1.349  0.3865  0.0576 -0.0371
    8CHTO   C31 3264   5.083   9.500   1.234  0.1886 -0.1923 -0.3231
    8CHTO   H59 3265   5.105   9.574   1.155  1.6580  1.7893  1.8680
    8CHTO   C29 3266   5.217   9.426   1.268 -0.6106 -0.1007 -0.3649
    8CHTO   H57 3267   5.201   9.380   1.366  2.5830  1.6448  1.0516
    8CHTO   O21 3268   5.314   9.531   1.294  0.1557 -0.5041  0.0689
    8CHTO   H37 3269   5.381   9.490   1.345  0.4690 -0.6580 -0.4669
    8CHTO   C27 3270   5.255   9.318   1.163  0.4961  0.5027  0.1627
    8CHTO   H55 3271   5.258   9.368   1.064  0.5363 -1.4076 -0.8137
    8CHTO    N5 3272   5.380   9.247   1.196 -0.3778 -0.1051 -0.3133
    8CHTO   H43 3273   5.378   9.140   1.183 -0.6457 -0.2090  0.5218
    8CHTO   H44 3274   5.448   9.296   1.128  1.7505  0.3132  2.0409
    8CHTO   C25 3275   5.130   9.224   1.136 -0.0756 -0.4717  0.3346
    8CHTO   H53 3276   5.092   9.190   1.234 -0.6701  0.7974  0.5480
    8CHTO   O17 3277   5.021   9.305   1.077 -0.4415  0.4309  0.3101
    8CHTO   C32 3278   4.974   9.408   1.167  0.0538 -0.0486 -0.2589
    8CHTO   H60 3279   4.914   9.368   1.250 -0.7169 -0.5687 -1.0581
    8CHTO   C36 3280   4.851   9.492   1.098 -0.3587 -0.4936  0.1130
    8CHTO   O25 3281   4.897   9.570   0.991 -0.9267 -0.2429  0.0780
    8CHTO   H40 3282   4.827   9.614   0.946 -0.8334  0.8191  0.9756
    8CHTO   O15 3283   5.156   9.108   1.041  0.5558  0.9889  0.2658
    8CHTO   C19 3284   5.192   9.084   0.897 -0.5210  0.7455 -0.6331
    8CHTO   H47 3285   5.164   8.978   0.892 -0.9171  0.8999 -1.7610
    8CHTO   C20 3286   5.103   9.165   0.803  0.3109  0.2013 -0.4558
    8CHTO   H48 3287   5.100   9.272   0.828 -1.7650  0.0262  0.2119
    8CHTO   O19 3288   4.970   9.121   0.822  0.0269  0.4407  0.1804
    8CHTO   H35 3289   4.918   9.181   0.872 -0.9587 -0.8769  0.7492
    8CHTO   C21 3290   5.158   9.166   0.657 -0.2827 -0.3817  0.6278
    8CHTO   H49 3291   5.120   9.074   0.613  0.8365 -1.8769  2.7070
    8CHTO    N4 3292   5.098   9.268   0.562 -0.0843 -0.3803  0.4575
    8CHTO   H41 3293   5.120   9.363   0.608  0.0916 -1.1760  2.0463
    8CHTO   H42 3294   4.990   9.262   0.565  0.0033 -1.6824  4.7651
    8CHTO   C22 3295   5.317   9.174   0.647  0.2294 -0.3583 -0.3844
    8CHTO   H50 3296   5.343   9.268   0.695  0.7459 -0.2997 -0.7741
    8CHTO   O14 3297   5.363   9.062   0.728  0.4232  0.1230 -0.5139
    8CHTO   C23 3298   5.345   9.090   0.863  0.5624  0.2419  0.0130
    8CHTO   H51 3299   5.389   9.188   0.891 -2.4922  1.6191  0.1312
    8CHTO   C34 3300   5.416   8.987   0.951 -0.3694 -0.0092 -0.3159
    8CHTO   O23 3301   5.559   8.995   0.951 -0.2763  0.3325  0.1695
    8CHTO   H38 3302   5.592   9.080   0.973  1.7900 -0.6800  1.1062
    8CHTO   O16 3303   5.381   9.187   0.516 -0.7898  0.2363 -0.5329
    8CHTO   C24 3304   5.531   9.228   0.513  0.4059  0.0640  0.4194
    8CHTO   H52 3305   5.579   9.223   0.610  0.9416  0.4714  0.1777
    8CHTO   C26 3306   5.519   9.368   0.458 -0.1772  0.5108  0.0739
    8CHTO   H54 3307   5.449   9.366   0.372  0.9227  1.4620 -0.8728
    8CHTO   O20 3308   5.446   9.451   0.547  0.8423 -0.2810  0.4709
    8CHTO   H36 3309   5.494   9.448   0.627  1.4641  0.9761  0.1609
    8CHTO   C30 3310   5.665   9.421   0.435 -0.3367 -0.7578 -0.1374
    8CHTO   H58 3311   5.726   9.426   0.526 -0.8520 -0.6465  0.2044
    8CHTO    N6 3312   5.667   9.557   0.376 -0.3095 -0.0359 -0.5201
    8CHTO   H45 3313   5.752   9.613   0.414  0.0384  0.7462 -2.4025
    8CHTO   H46 3314   5.668   9.564   0.268 -2.0342 -3.2996 -0.8005
    8CHTO   C33 3315   5.744   9.316   0.347 -0.2881  0.1930 -0.0247
    8CHTO   H61 3316   5.695   9.312   0.248 -1.8771 -0.9866  0.7871
    8CHTO   O18 3317   5.733   9.185   0.404 -0.2255  0.0229 -0.4376
    8CHTO   C28 3318   5.608   9.130   0.417 -0.4314  0.1460 -0.1452
    8CHTO   H56 3319   5.561   9.123   0.318  1.3923  0.7648 -1.0746
    8CHTO   C35 3320   5.618   8.978   0.469  0.1192  0.0995  0.3755
    8CHTO   O24 3321   5.695   8.957   0.586  0.3316  0.2535 -0.3025
    8CHTO   H39 3322   5.707   8.864   0.590  0.6328  0.2366 -1.2519
    8CHTO    O9 3323   5.880   9.357   0.327  0.3080 -0.1851 -0.1120
    8CHTO   C13 3324   5.957   9.237   0.225  0.5461 -0.6158 -0.0197
    8CHTO   H26 3325   5.871   9.213   0.158  1.1460 -1.7535 -0.4068
    8CHTO   C11 3326   6.006   9.106   0.307  0.7393 -0.0134 -0.1407
    8CHTO   H24 3327   5.922   9.054   0.356  1.3172  2.4064  3.6955
    8CHTO    O8 3328   6.091   9.149   0.409 -0.1632  0.3613 -0.3785
    8CHTO    H3 3329   6.155   9.211   0.377  1.0807 -0.4905  0.4204
    8CHTO    C9 3330   6.075   9.014   0.205  0.5036 -0.2419  0.2947
    8CHTO   H22 3331   5.997   8.999   0.129  1.0968 -0.1704 -0.3315
    8CHTO    N2 3332   6.106   8.886   0.273  0.2568  0.2368  0.6222
    8CHTO   H10 3333   6.169   8.898   0.360  1.1726 -0.1788  0.0181
    8CHTO   H11 3334   6.016   8.832   0.299  1.2025 -0.8609  1.6710
    8CHTO    C7 3335   6.190   9.089   0.126 -0.1537 -0.1993 -0.1176
    8CHTO   H20 3336   6.168   9.068   0.019 -3.7323 -0.1102  0.5181
    8CHTO    O4 3337   6.198   9.231   0.152 -0.2994  0.2341  0.0883
    8CHTO   C14 3338   6.072   9.305   0.138  0.5029  0.1838 -0.0752
    8CHTO   H27 3339   6.040   9.305   0.032 -1.3122 -1.0877  0.4421
    8CHTO   C18 3340   6.104   9.451   0.180 -0.1964  0.0817 -0.4375
    8CHTO   O13 3341   5.992   9.535   0.148  0.0782 -0.5031 -0.1945
    8CHTO    H7 3342   5.958   9.509   0.065 -0.9315  0.1434  0.0103
    8CHTO    O2 3343   6.348   9.029   0.148 -0.0785  0.2065  0.2278
    8CHTO    C1 3344   6.413   9.030   0.020  0.2203 -0.7687  0.0448
    8CHTO   H14 3345   6.356   9.097  -0.049  0.5204 -1.6798 -1.0972
    8CHTO    C2 3346   6.433   8.896  -0.058 -0.4228  0.0241  0.3081
    8CHTO   H15 3347   6.476   8.831   0.020  1.5017  1.3287  0.3716
    8CHTO    O6 3348   6.301   8.850  -0.094  0.2203 -0.0835  0.0677
    8CHTO    H1 3349   6.304   8.764  -0.133  0.1567 -1.0810  2.1709
    8CHTO    C3 3350   6.533   8.892  -0.184 -0.0911  0.9342  0.2184
    8CHTO   H16 3351   6.473   8.949  -0.256  0.6913 -0.6339 -1.7031
    8CHTO    N1 3352   6.564   8.758  -0.251 -0.4014  0.8241 -0.4701
    8CHTO    H8 3353   6.546   8.680  -0.179  1.2397  0.2984 -0.6035
    8CHTO    H9 3354   6.488   8.746  -0.326 -0.0642 -2.1790 -0.3848
    8CHTO    C4 3355   6.657   8.984  -0.159  0.1388 -0.3087 -0.0890
    8CHTO   H17 3356   6.725   8.934  -0.089 -0.9373  0.3000  1.4020
    8CHTO    O1 3357   6.604   9.110  -0.110 -0.7821 -0.0314 -0.2526
    8CHTO    C5 3358   6.545   9.104   0.027 -1.2617  0.6622 -0.7051
    8CHTO   H18 3359   6.595   9.039   0.099 -2.5435 -0.7495 -1.0735
    8CHTO   C16 3360   6.531   9.248   0.087 -0.5096 -0.0547 -0.1549
    8CHTO   O11 3361   6.445   9.343   0.027  0.7414  0.2481 -0.0103
    8CHTO    H5 3362   6.410   9.404   0.089 -0.9580 -0.5804 -0.1159
    8CHTO    O3 3363   6.732   9.009  -0.281 -0.5313 -0.1535 -0.0829
    8CHTO    C6 3364   6.851   9.091  -0.260  0.0054  0.6412 -0.8079
    8CHTO   H19 3365   6.867   9.141  -0.164 -0.5822 -0.9322  0.1213
    8CHTO    C8 3366   6.961   8.979  -0.274  0.0374 -0.3288 -0.2168
    8CHTO   H21 3367   6.947   8.928  -0.369 -0.9383 -0.5949  0.0590
    8CHTO    O7 3368   6.949   8.891  -0.159 -0.2302  0.0859 -0.3718
    8CHTO    H2 3369   6.984   8.808  -0.183  2.1761  0.2908  2.1887
    8CHTO   C12 3370   7.092   9.056  -0.274 -0.6788  0.1332 -0.1917
    8CHTO   H25 3371   7.113   9.090  -0.170  0.1611 -2.5182  0.5744
    8CHTO    N3 3372   7.205   8.961  -0.301  0.9496  0.0767  0.0950
    8CHTO   H12 3373   7.171   8.859  -0.303 -1.9988  1.0382 -0.3260
    8CHTO   H13 3374   7.273   8.981  -0.220 -0.8483 -0.5815  1.7931
    8CHTO   C15 3375   7.105   9.179  -0.381  0.3560 -0.2703 -0.2518
    8CHTO   H28 3376   7.111   9.155  -0.487  0.9168 -2.0599  0.1593
    8CHTO   O10 3377   7.217   9.269  -0.354  0.1063  0.1219  0.5611
    8CHTO    H4 3378   7.217   9.347  -0.405  2.3538 -1.0670 -1.3907
    8CHTO    O5 3379   6.993   9.264  -0.361  0.3137  0.1024  0.3413
    8CHTO   C10 3380   6.863   9.200  -0.371 -0.6204 -0.0451  0.2308
    8CHTO   H23 3381   6.852   9.140  -0.460  1.5867  2.9680 -2.2127
    8CHTO   C17 3382   6.763   9.308  -0.361  1.0604  0.1603 -0.0100
    8CHTO   O12 3383   6.758   9.391  -0.247  0.2622 -0.2709 -0.4657
    8CHTO    H6 3384   6.687   9.449  -0.264  1.3431  0.6120 -2.2153
    9CHTO  H203 3385   6.654   3.663   1.825  1.5517 -3.2510  1.5226
    9CHTO   O82 3386   6.708   3.635   1.753  0.5069 -0.0114 -0.6183
    9CHTO  C123 3387   6.654   3.528   1.673 -0.2845 -0.2751  0.9745
    9CHTO  H227 3388   6.569   3.486   1.729 -0.2986 -3.2068 -1.1050
    9CHTO   O77 3389   6.592   3.590   1.549 -0.5816 -0.6465  0.5044
    9CHTO  C118 3390   6.538   3.499   1.450 -0.3953 -0.1882  0.3161
    9CHTO  H222 3391   6.462   3.442   1.505 -0.6803 -1.5329 -1.4473
    9CHTO  C125 3392   6.467   3.590   1.340 -0.2691  0.7329  0.3908
    9CHTO   O84 3393   6.345   3.653   1.380 -0.3120  0.8197 -0.6777
    9CHTO  H205 3394   6.335   3.666   1.472  2.6728  1.7586 -0.4067
    9CHTO  C114 3395   6.649   3.406   1.402 -0.3079  0.1362  0.2459
    9CHTO  H218 3396   6.724   3.463   1.347  0.7597 -1.0133  0.4826
    9CHTO  C116 3397   6.719   3.326   1.512  0.6757  0.1515  0.1781
    9CHTO  H220 3398   6.655   3.243   1.548 -0.6450  1.3655  0.6645
    9CHTO   O79 3399   6.825   3.248   1.462  0.1254 -0.1645  0.3555
    9CHTO  H201 3400   6.800   3.163   1.431  1.1067 -0.1412 -0.5467
    9CHTO  C120 3401   6.764   3.420   1.631 -0.5982  1.0029  0.0279
    9CHTO  H224 3402   6.856   3.471   1.597  0.5102 -1.5064 -0.9107
    9CHTO   N21 3403   6.802   3.345   1.753 -0.4228 -0.0343 -0.2331
    9CHTO  H211 3404   6.901   3.302   1.745  0.9559  3.2827 -1.8307
    9CHTO  H212 3405   6.726   3.270   1.766  0.2283 -0.9199 -1.4604
    9CHTO   O75 3406   6.574   3.312   1.314 -0.3413 -0.4309 -0.0898
    9CHTO  C112 3407   6.600   3.348   1.144  0.4428  0.2648 -0.1783
    9CHTO  H216 3408   6.692   3.408   1.143  1.2627 -0.9425  0.9587
    9CHTO   O73 3409   6.487   3.420   1.096  0.2666 -0.1334 -0.1943
    9CHTO  C113 3410   6.519   3.486   0.973 -0.3247 -0.7025 -0.2595
    9CHTO  H217 3411   6.598   3.560   0.998  0.6633 -0.7940 -2.9457
    9CHTO  C124 3412   6.400   3.571   0.926 -0.5192  0.2222 -0.4829
    9CHTO   O83 3413   6.278   3.497   0.908 -0.4359 -0.3557 -0.5186
    9CHTO  H204 3414   6.231   3.547   0.844 -0.4264 -0.5158 -0.6507
    9CHTO  C109 3415   6.574   3.401   0.852  1.0255 -1.0621  0.1978
    9CHTO  H213 3416   6.487   3.356   0.802  0.1177  1.3898 -0.4900
    9CHTO  C110 3417   6.668   3.291   0.910 -0.4211  0.3400 -0.0865
    9CHTO  H214 3418   6.762   3.346   0.913 -0.8075  1.2855 -3.2262
    9CHTO   O78 3419   6.681   3.180   0.823  0.1656  0.4164  0.5344
    9CHTO  H200 3420   6.765   3.143   0.843  0.9518  1.1900 -1.2817
    9CHTO  C111 3421   6.627   3.229   1.049 -0.1961  0.5826  0.0463
    9CHTO  H215 3422   6.532   3.177   1.025 -0.2775  0.2742  1.0235
    9CHTO   N19 3423   6.722   3.127   1.108  0.6573 -0.0928 -0.0543
    9CHTO  H207 3424   6.667   3.048   1.156 -2.3827  2.6004  1.0550
    9CHTO  H208 3425   6.779   3.171   1.189  0.4805 -1.1256  0.6405
    9CHTO   O74 3426   6.642   3.481   0.755 -0.1367 -0.1018  0.2043
    9CHTO  C115 3427   6.602   3.409   0.605  0.4772  0.1488  0.2196
    9CHTO  H219 3428   6.614   3.301   0.606  0.1280  0.1133  0.4025
    9CHTO   O76 3429   6.462   3.438   0.567  0.3686  0.2235  0.3511
    9CHTO  C122 3430   6.407   3.404   0.434  0.0304  0.3780 -0.2014
    9CHTO  H226 3431   6.328   3.474   0.407 -0.8172 -0.5181 -0.0836
    9CHTO  C126 3432   6.339   3.271   0.443  0.4364 -0.1832 -0.1966
    9CHTO   O85 3433   6.251   3.243   0.331  0.0947 -0.2430 -0.4878
    9CHTO  H206 3434   6.257   3.149   0.327  2.0898 -0.1716 -0.1210
    9CHTO  C121 3435   6.514   3.409   0.320 -0.5159 -0.3382  0.4846
    9CHTO  H225 3436   6.556   3.306   0.314 -0.2752 -0.1640 -1.1806
    9CHTO   O81 3437   6.456   3.442   0.193 -0.6182 -0.3055  0.2913
    9CHTO  H202 3438   6.396   3.514   0.184 -0.9116 -0.6364 -0.4382
    9CHTO  C119 3439   6.627   3.513   0.365 -0.0075  0.5999 -0.0729
    9CHTO  H223 3440   6.691   3.517   0.277 -0.5931 -1.6982 -0.6416
    9CHTO  C117 3441   6.701   3.455   0.490 -0.5289  0.0432 -0.2145
    9CHTO  H221 3442   6.759   3.536   0.534 -1.1141  1.0023 -1.1923
    9CHTO   N20 3443   6.800   3.351   0.457 -0.1487 -0.2349  0.7163
    9CHTO  H209 3444   6.879   3.392   0.396 -0.1902 -0.5757  0.4300
    9CHTO  H210 3445   6.757   3.284   0.383  0.6183 -1.2991  1.2197
    9CHTO   O80 3446   6.583   3.656   0.379 -0.0782  0.3976 -0.6332
    9CHTO  C103 3447   6.686   3.778   0.395  0.4111 -0.3831 -0.4203
    9CHTO  H190 3448   6.733   3.771   0.493 -0.8179 -1.6921  0.0919
    9CHTO  C101 3449   6.805   3.783   0.284  0.1949  0.0774  0.1101
    9CHTO  H188 3450   6.774   3.755   0.184 -0.9000 -1.6258  0.9201
    9CHTO   O68 3451   6.921   3.678   0.321  0.5544  0.3453 -0.0304
    9CHTO  H168 3452   6.991   3.688   0.259  0.7943 -0.2320  0.1444
    9CHTO   C99 3453   6.869   3.936   0.289 -0.0218  0.2156  0.6186
    9CHTO  H186 3454   6.921   3.941   0.387 -2.1730  2.7477  1.6998
    9CHTO   N17 3455   6.972   3.965   0.180 -0.2423  0.3628 -0.5693
    9CHTO  H174 3456   7.062   3.905   0.182 -0.2627  0.3149 -1.0001
    9CHTO  H175 3457   6.942   4.018   0.091  1.4568  1.7639 -0.3483
    9CHTO   C97 3458   6.758   4.044   0.283 -0.4751 -0.0164  0.2393
    9CHTO  H184 3459   6.697   4.048   0.192  0.0770 -2.2117 -0.2388
    9CHTO   O64 3460   6.680   4.019   0.401  0.5144  0.0409 -1.1060
    9CHTO  C104 3461   6.599   3.906   0.395  0.2435 -0.6178 -0.4250
    9CHTO  H191 3462   6.539   3.905   0.304 -2.2961  1.6830  1.1225
    9CHTO  C108 3463   6.493   3.917   0.509 -0.4938 -0.6923 -0.6115
    9CHTO   O71 3464   6.558   3.908   0.643  0.0387 -0.6108  0.0875
    9CHTO  H171 3465   6.626   3.972   0.646 -0.3403 -0.2386  0.6613
    9CHTO   O62 3466   6.799   4.181   0.314  0.1679 -0.3019  0.2892
    9CHTO   C91 3467   6.788   4.280   0.210  0.2843  1.1823 -0.4324
    9CHTO  H178 3468   6.820   4.241   0.113  0.1783  1.3044 -0.5166
    9CHTO   C92 3469   6.879   4.397   0.251 -0.7589  0.0818 -1.0380
    9CHTO  H179 3470   6.978   4.363   0.285 -1.3721  0.9409  1.7590
    9CHTO   O66 3471   6.897   4.472   0.129 -0.3936 -0.3099 -0.2745
    9CHTO  H166 3472   6.983   4.505   0.110 -0.9129 -0.5784 -3.4195
    9CHTO   C93 3473   6.827   4.496   0.354  1.2385  0.2403 -0.0754
    9CHTO  H180 3474   6.875   4.593   0.337  1.7686  0.3442  1.8720
    9CHTO   N16 3475   6.858   4.478   0.499  0.4603  0.0074 -0.3694
    9CHTO  H172 3476   6.816   4.557   0.560 -0.1273 -0.0978 -0.6399
    9CHTO  H173 3477   6.841   4.374   0.524  0.7552 -0.7406 -3.1350
    9CHTO   C94 3478   6.670   4.519   0.346  0.2889 -0.5295 -0.4848
    9CHTO  H181 3479   6.616   4.475   0.430  0.4319 -0.3569 -0.3020
    9CHTO   O61 3480   6.610   4.465   0.224 -0.2478 -0.0133 -0.0009
    9CHTO   C95 3481   6.637   4.328   0.196 -0.4267 -0.8419 -0.2545
    9CHTO  H182 3482   6.578   4.265   0.262 -0.2754 -2.3114 -1.4851
    9CHTO  C106 3483   6.589   4.297   0.054 -0.1469  0.2427 -0.3931
    9CHTO   O69 3484   6.445   4.305   0.036 -0.3596  0.5597 -0.1926
    9CHTO  H169 3485   6.436   4.314  -0.057 -0.3319 -1.1791 -0.3777
    9CHTO   O63 3486   6.655   4.660   0.324 -0.0310 -0.2444  0.7992
    9CHTO   C96 3487   6.514   4.716   0.409  0.0456 -1.2404 -0.3280
    9CHTO  H183 3488   6.487   4.645   0.487  1.7860 -0.2891  1.1879
    9CHTO   C98 3489   6.386   4.730   0.323 -0.9554 -0.1563  0.3643
    9CHTO  H185 3490   6.418   4.783   0.232 -0.8158  1.2644  1.2220
    9CHTO   O67 3491   6.346   4.602   0.278  0.0361  0.0716 -0.1379
    9CHTO  H167 3492   6.401   4.572   0.208 -0.2456  0.0163 -0.3365
    9CHTO  C102 3493   6.255   4.813   0.389  0.1449  0.1486  0.1186
    9CHTO  H189 3494   6.208   4.744   0.460 -0.7167  1.5458  0.9448
    9CHTO   N18 3495   6.147   4.854   0.294  0.1362  0.5240  0.1405
    9CHTO  H176 3496   6.102   4.949   0.318 -2.1629 -0.6288  0.4933
    9CHTO  H177 3497   6.079   4.772   0.275  0.1749  0.2050  1.3329
    9CHTO  C105 3498   6.312   4.935   0.473  0.3611 -0.0433 -0.0436
    9CHTO  H192 3499   6.336   5.023   0.413 -1.0113  1.0448  0.9491
    9CHTO   O65 3500   6.422   4.897   0.548  0.2805 -0.1428  0.1501
    9CHTO  C100 3501   6.544   4.858   0.480 -0.1768 -0.2429  0.2314
    9CHTO  H187 3502   6.572   4.929   0.400  0.6846 -1.8160 -0.8976
    9CHTO  C107 3503   6.652   4.862   0.589 -0.4393  0.5580  0.3034
    9CHTO   O70 3504   6.625   4.760   0.688 -0.1675  0.7184 -0.3433
    9CHTO  H170 3505   6.706   4.721   0.714 -1.3960 -0.2305  2.2057
    9CHTO   O57 3506   6.211   4.969   0.577 -0.3970  0.0386  0.1739
    9CHTO   C85 3507   6.155   5.099   0.597 -0.5394  0.6624 -0.5042
    9CHTO  H157 3508   6.095   5.119   0.506 -1.4184  2.0061  0.3562
    9CHTO   C83 3509   6.267   5.208   0.624 -0.5346 -0.5194  0.1598
    9CHTO  H155 3510   6.306   5.219   0.523 -1.1373 -0.1899 -0.0468
    9CHTO   O56 3511   6.370   5.173   0.724  0.3139 -0.1520 -0.0995
    9CHTO  H135 3512   6.405   5.097   0.682 -1.6502 -0.4112 -1.3178
    9CHTO   C81 3513   6.205   5.342   0.665  0.0077 -0.0823  0.6476
    9CHTO  H153 3514   6.136   5.372   0.587  0.8148  0.7382  0.2338
    9CHTO   N14 3515   6.297   5.458   0.673  0.2039  0.1814  0.1429
    9CHTO  H141 3516   6.244   5.544   0.709 -0.2622 -0.0843  0.0942
    9CHTO  H142 3517   6.320   5.480   0.571  0.7242  1.1739  0.4711
    9CHTO   C79 3518   6.122   5.328   0.798 -0.0464 -0.3604 -0.0965
    9CHTO  H151 3519   6.062   5.417   0.816  0.7014  0.4479 -1.5097
    9CHTO   O52 3520   6.016   5.230   0.771  0.3342 -0.0703  0.2553
    9CHTO   C86 3521   6.061   5.097   0.733  0.4585 -0.3451  0.0393
    9CHTO  H158 3522   6.114   5.060   0.823 -2.5114 -0.5579  1.7404
    9CHTO   C90 3523   5.939   4.998   0.707 -0.4105 -0.0385  0.7496
    9CHTO   O60 3524   5.867   4.972   0.826  0.0936  0.6704 -0.0675
    9CHTO  H138 3525   5.788   4.926   0.804  0.8414 -2.5291  3.4856
    9CHTO   O50 3526   6.201   5.296   0.906  0.1618  0.0336  0.0908
    9CHTO   C73 3527   6.179   5.347   1.040 -0.4135  0.3209 -0.2239
    9CHTO  H145 3528   6.076   5.381   1.061  0.2579  1.4207  1.3684
    9CHTO   C74 3529   6.258   5.476   1.064  1.2766  0.2500 -0.3378
    9CHTO  H146 3530   6.220   5.546   0.987 -0.5224  1.8290  1.9020
    9CHTO   O54 3531   6.224   5.531   1.191  0.0372  0.2342 -0.2342
    9CHTO  H133 3532   6.217   5.462   1.255 -0.4555 -0.5809 -1.1647
    9CHTO   C75 3533   6.414   5.444   1.045 -0.2896 -0.6583 -0.0488
    9CHTO  H147 3534   6.433   5.394   0.949  0.8463 -2.0727  0.8944
    9CHTO   N13 3535   6.497   5.571   1.041  0.5465  0.0467  0.1072
    9CHTO  H139 3536   6.562   5.570   0.956  0.7223  2.0170  0.2056
    9CHTO  H140 3537   6.563   5.571   1.127 -0.1171  0.2183  0.6229
    9CHTO   C76 3538   6.450   5.333   1.154 -0.6343 -0.4109  0.2844
    9CHTO  H148 3539   6.447   5.376   1.254 -1.2451  0.0516  0.0684
    9CHTO   O49 3540   6.362   5.215   1.143  0.3314 -0.5436 -0.5754
    9CHTO   C77 3541   6.218   5.242   1.143  0.1095  0.3734  0.8099
    9CHTO  H149 3542   6.199   5.276   1.245  2.4653  0.5006  1.2409
    9CHTO   C88 3543   6.134   5.117   1.119  0.0814 -0.1790 -0.1881
    9CHTO   O58 3544   6.143   5.027   1.246  0.5283 -0.0573 -0.3255
    9CHTO  H136 3545   6.227   4.985   1.247  0.0918 -0.9278 -0.6292
    9CHTO   O51 3546   6.583   5.283   1.122  0.3056  0.7053 -0.5891
    9CHTO   C78 3547   6.666   5.221   1.246 -0.0829  0.2538 -0.6229
    9CHTO  H150 3548   6.605   5.206   1.337 -0.8967  0.7755 -1.0666
    9CHTO   C80 3549   6.782   5.314   1.280  0.0082 -0.3789  0.3147
    9CHTO  H152 3550   6.841   5.330   1.188  1.7007 -1.4938  1.1745
    9CHTO   O55 3551   6.711   5.433   1.321  0.4010 -0.1610 -0.0373
    9CHTO  H134 3552   6.687   5.429   1.411  2.1140 -0.0190  0.4512
    9CHTO   C84 3553   6.878   5.266   1.399  0.7919  0.0040  0.2017
    9CHTO  H156 3554   6.821   5.246   1.490  1.4643  2.2248  1.1599
    9CHTO   N15 3555   6.981   5.365   1.442 -0.4828 -0.1865  0.5468
    9CHTO  H143 3556   7.033   5.409   1.359 -0.6614 -0.6431  0.1938
    9CHTO  H144 3557   6.928   5.441   1.495 -2.7067 -1.5422  0.3089
    9CHTO   C87 3558   6.936   5.133   1.351 -0.4319 -0.5004  0.0007
    9CHTO  H159 3559   7.010   5.137   1.271 -2.4119 -1.3132 -1.9147
    9CHTO   O53 3560   6.823   5.048   1.303 -0.0758  0.9628  0.0666
    9CHTO   C82 3561   6.731   5.090   1.202  0.6844  0.1745  0.2907
    9CHTO  H154 3562   6.773   5.102   1.102 -3.5685  0.9946 -1.4798
    9CHTO   C89 3563   6.627   4.978   1.187  0.1715 -0.3527 -0.3492
    9CHTO   O59 3564   6.525   4.989   1.093  0.1563  0.2904  0.1308
    9CHTO  H137 3565   6.483   4.906   1.107  0.2433  0.0221 -1.0569
    9CHTO   O45 3566   6.995   5.045   1.476  0.9586  0.5561  0.4948
    9CHTO   C67 3567   7.090   4.955   1.422  0.0451  0.0711 -0.2286
    9CHTO  H124 3568   7.062   4.933   1.320 -0.2405  1.5969 -0.4837
    9CHTO   C65 3569   7.232   5.018   1.420  0.2372 -0.0492 -0.5875
    9CHTO  H122 3570   7.231   5.096   1.495  1.9115 -1.2818  0.7668
    9CHTO   O44 3571   7.253   5.080   1.293 -0.1387  0.3898 -0.2715
    9CHTO  H102 3572   7.244   5.173   1.296 -3.0682  0.1593 -0.4769
    9CHTO   C63 3573   7.352   4.927   1.469  0.3743  0.0247 -0.2331
    9CHTO  H120 3574   7.348   4.917   1.577 -2.1176  1.4133 -0.1617
    9CHTO   N11 3575   7.490   4.983   1.456 -0.5457  0.2155 -0.4714
    9CHTO  H108 3576   7.546   4.908   1.405 -0.9705 -2.4131  2.7917
    9CHTO  H109 3577   7.524   5.018   1.551 -3.5127 -0.6662  1.0067
    9CHTO   C61 3578   7.334   4.781   1.420  0.3616  0.0104 -0.7077
    9CHTO  H118 3579   7.401   4.721   1.484 -2.1738 -1.9406  0.1664
    9CHTO   O40 3580   7.193   4.724   1.444  0.1554  0.1698  0.1685
    9CHTO   C68 3581   7.094   4.817   1.496  0.2400  0.5428 -0.2778
    9CHTO  H125 3582   7.126   4.827   1.601  0.0395  2.0921 -0.3632
    9CHTO   C72 3583   6.956   4.749   1.496 -0.5167 -0.1191  0.2649
    9CHTO   O48 3584   6.945   4.615   1.555 -0.4094 -0.3625  1.0379
    9CHTO  H105 3585   6.975   4.614   1.644  0.4403 -0.3656  0.7494
    9CHTO   O38 3586   7.364   4.762   1.275  0.3144  0.5833  0.4043
    9CHTO   C55 3587   7.425   4.631   1.249  1.0160  0.0983  0.2600
    9CHTO  H112 3588   7.418   4.567   1.337  1.0233 -1.2004 -0.6721
    9CHTO   C56 3589   7.580   4.656   1.205 -0.4579 -0.1983 -0.5690
    9CHTO  H113 3590   7.596   4.742   1.138  1.4739 -0.7523 -0.8564
    9CHTO   O42 3591   7.666   4.693   1.316  0.2684 -0.2662 -0.1751
    9CHTO  H100 3592   7.615   4.711   1.393  1.0268  1.0904  0.0302
    9CHTO   C57 3593   7.649   4.528   1.130  0.4631 -0.5041 -0.2746
    9CHTO  H114 3594   7.666   4.465   1.217  0.0209  0.7142  0.7062
    9CHTO   N10 3595   7.769   4.569   1.056 -0.3861 -0.0653 -0.0466
    9CHTO  H106 3596   7.765   4.533   0.954  1.3341  2.7309 -1.1581
    9CHTO  H107 3597   7.785   4.675   1.056 -1.5701  0.1197  1.3948
    9CHTO   C58 3598   7.541   4.451   1.045  0.3712 -0.0175 -0.1832
    9CHTO  H115 3599   7.519   4.513   0.955 -0.1941  0.0220 -0.0182
    9CHTO   O37 3600   7.418   4.438   1.121  0.3537  0.3177  0.1854
    9CHTO   C59 3601   7.352   4.564   1.138  0.9183 -0.6423 -0.1181
    9CHTO  H116 3602   7.366   4.614   1.042 -0.8512  0.5943  0.2495
    9CHTO   C70 3603   7.202   4.534   1.163 -0.0891  0.7215  0.2794
    9CHTO   O46 3604   7.140   4.416   1.101 -0.0086  0.0871  0.0903
    9CHTO  H103 3605   7.186   4.341   1.134  1.6014  0.9526 -0.1330
    9CHTO   O39 3606   7.580   4.297   0.989 -0.7307 -0.5309 -0.3594
    9CHTO   C60 3607   7.467   4.241   0.921  0.4546  0.3724 -0.1010
    9CHTO  H117 3608   7.375   4.257   0.977  0.7837  0.0491  0.5486
    9CHTO   C62 3609   7.449   4.293   0.778  0.8258  0.4164  0.0294
    9CHTO  H119 3610   7.427   4.401   0.792  1.3458  0.2230  2.7995
    9CHTO   O43 3611   7.564   4.273   0.690 -0.5273  0.1858 -0.1769
    9CHTO  H101 3612   7.581   4.184   0.663 -3.4409 -0.6580  0.6162
    9CHTO   C66 3613   7.312   4.234   0.711  0.0317 -0.5456 -0.1693
    9CHTO  H123 3614   7.227   4.262   0.773 -0.3114 -0.5035 -0.6599
    9CHTO   N12 3615   7.293   4.305   0.580 -0.4494  1.1446 -0.5917
    9CHTO  H110 3616   7.375   4.285   0.513  0.8421 -1.0943  1.5429
    9CHTO  H111 3617   7.195   4.291   0.538 -0.3024  1.8520 -1.1811
    9CHTO   C69 3618   7.313   4.083   0.690 -0.2929 -0.7278 -0.3546
    9CHTO  H126 3619   7.396   4.056   0.621 -0.2827 -1.8066  0.0752
    9CHTO   O41 3620   7.356   4.002   0.833  0.3350  0.1079  0.5780
    9CHTO   C64 3621   7.486   4.088   0.917  0.1087 -0.5567  0.8728
    9CHTO  H121 3622   7.581   4.073   0.862  0.7570  0.9008  1.5855
    9CHTO   C71 3623   7.503   4.036   1.060 -0.0064  0.3132  0.7798
    9CHTO   O47 3624   7.372   4.027   1.111 -0.1440  0.4322 -0.0466
    9CHTO  H104 3625   7.322   3.955   1.075  2.4001 -0.4972 -1.8940
    9CHTO   O34 3626   7.190   4.035   0.656  0.0625 -0.0272  0.8936
    9CHTO   C49 3627   7.069   3.955   0.678 -0.0186 -0.6138  0.0719
    9CHTO   H91 3628   7.047   3.902   0.585 -1.5547 -0.0765  0.1220
    9CHTO   C47 3629   6.958   4.051   0.720  0.4997  0.0425 -0.0871
    9CHTO   H89 3630   6.867   3.988   0.713 -1.0052  1.8111  2.6533
    9CHTO   O33 3631   6.953   4.146   0.614  0.5360  0.5246 -0.6212
    9CHTO   H70 3632   6.895   4.216   0.636 -1.0045 -0.1729 -2.3133
    9CHTO   C45 3633   6.978   4.104   0.862 -0.4824  0.3800  0.0405
    9CHTO   H87 3634   7.075   4.156   0.865  0.3467 -0.9360 -2.9369
    9CHTO    N8 3635   6.878   4.203   0.895  0.3037 -0.7780  0.1878
    9CHTO   H75 3636   6.821   4.174   0.981  2.3451 -0.8026  1.5672
    9CHTO   H76 3637   6.925   4.300   0.905  0.0511 -0.5163 -1.1025
    9CHTO   C43 3638   6.993   3.977   0.970  0.4339 -0.1631  0.6208
    9CHTO   H85 3639   7.021   4.026   1.063 -0.5207  3.7416 -1.0305
    9CHTO   O29 3640   7.100   3.888   0.924  0.2015 -0.2347 -0.5852
    9CHTO   C50 3641   7.103   3.845   0.787  0.4903  0.3606 -0.3057
    9CHTO   H92 3642   7.196   3.800   0.748  0.9227 -0.3669  1.5112
    9CHTO   C54 3643   7.013   3.727   0.772 -0.4988  0.0337 -0.5292
    9CHTO   O36 3644   7.059   3.619   0.854  0.5004 -0.1228  0.2147
    9CHTO   H72 3645   7.080   3.543   0.802  0.2711  0.7588 -1.1862
    9CHTO   O27 3646   6.870   3.898   0.995 -0.4411  0.4736 -0.5852
    9CHTO   C37 3647   6.795   3.861   1.110 -0.3839 -0.5766  0.1078
    9CHTO   H79 3648   6.718   3.789   1.081 -2.7665  0.7723  2.8138
    9CHTO   C38 3649   6.881   3.791   1.221  0.7397 -0.3718 -0.1128
    9CHTO   H80 3650   6.977   3.845   1.226  1.1620 -1.0983 -0.2882
    9CHTO   O31 3651   6.901   3.658   1.177  0.1116  0.4075  0.0296
    9CHTO   H68 3652   6.821   3.609   1.174  0.3752  0.0218 -0.8002
    9CHTO   C39 3653   6.816   3.786   1.367 -0.3153  0.2129  0.1991
    9CHTO   H81 3654   6.738   3.709   1.362 -0.3103  0.2398 -0.3833
    9CHTO    N7 3655   6.926   3.744   1.465  0.3091  0.6315 -0.1031
    9CHTO   H73 3656   6.983   3.817   1.520 -1.7186  0.2294  2.5835
    9CHTO   H74 3657   6.888   3.662   1.524  2.4713  0.1503  0.6741
    9CHTO   C40 3658   6.761   3.920   1.418  0.5351 -0.1475  0.2172
    9CHTO   H82 3659   6.841   3.992   1.434 -0.6320  0.9435  1.1778
    9CHTO   O26 3660   6.672   3.961   1.313  0.4281  0.0746 -0.0746
    9CHTO   C41 3661   6.728   3.983   1.180 -0.4044  0.3795 -0.0216
    9CHTO   H83 3662   6.793   4.072   1.187  1.2026 -0.8568  1.1294
    9CHTO   C52 3663   6.612   4.025   1.091 -0.2024  0.3303 -0.4391
    9CHTO   O35 3664   6.496   3.932   1.129 -0.1255  0.2324  0.5376
    9CHTO   H71 3665   6.469   3.936   1.219  0.2474 -0.7752  0.6998
    9CHTO   O28 3666   6.681   3.896   1.539  0.5336  0.4676  0.0374
    9CHTO   C42 3667   6.582   3.987   1.597 -0.2591 -0.5417  0.5605
    9CHTO   H84 3668   6.597   3.962   1.703 -0.0254  1.7976  1.1026
    9CHTO   C44 3669   6.431   3.949   1.580 -0.0554  0.2037 -0.0566
    9CHTO   H86 3670   6.427   3.900   1.483  0.4221 -1.6263  0.8273
    9CHTO   O32 3671   6.410   3.833   1.657 -0.5687 -0.1191  0.3806
    9CHTO   H69 3672   6.357   3.847   1.734  0.0668 -1.0943  1.0100
    9CHTO   C48 3673   6.318   4.061   1.591 -0.2116  0.7966  0.1513
    9CHTO   H90 3674   6.293   4.079   1.696 -2.5323 -1.4988  0.0508
    9CHTO    N9 3675   6.192   4.004   1.528  0.7184  0.2814 -0.2534
    9CHTO   H77 3676   6.155   3.913   1.573 -0.9754  1.2477  0.3587
    9CHTO   H78 3677   6.117   4.082   1.522  1.0565  0.4484 -3.2578
    9CHTO   C51 3678   6.372   4.191   1.521 -0.0968 -0.2859 -0.5931
    9CHTO   H93 3679   6.406   4.167   1.420 -0.9155 -1.4978 -0.5907
    9CHTO   O30 3680   6.481   4.231   1.604 -0.0705 -0.3235 -0.4813
    9CHTO   C46 3681   6.614   4.139   1.577  0.0087 -0.2057 -0.4748
    9CHTO   H88 3682   6.646   4.158   1.474 -1.5401  0.0318 -0.9252
    9CHTO   C53 3683   6.723   4.195   1.667 -0.8725  0.2173 -0.5504
    9CHTO   O72 3684   6.697   4.197   1.813 -0.2886  0.2793 -0.7898
    9CHTO  H199 3685   6.626   4.254   1.836 -0.1170  0.9488 -1.8777
    9CHTO   O22 3686   6.288   4.299   1.518  0.0482 -0.4580  0.0692
    9CHTO   C31 3687   6.298   4.407   1.416  0.0041  0.2667  0.4234
    9CHTO   H59 3688   6.225   4.483   1.450 -1.6059 -1.3286  0.5752
    9CHTO   C29 3689   6.438   4.470   1.414 -0.2182 -0.3070 -0.4655
    9CHTO   H57 3690   6.495   4.379   1.390 -0.3840 -0.4128 -0.4605
    9CHTO   O21 3691   6.475   4.510   1.547 -0.3443  0.2536 -0.5260
    9CHTO   H37 3692   6.421   4.471   1.612  1.6988 -0.2478  0.9095
    9CHTO   C27 3693   6.463   4.580   1.306 -0.4171 -0.3051 -0.2191
    9CHTO   H55 3694   6.401   4.666   1.338  0.3948  0.5541 -0.9293
    9CHTO    N5 3695   6.609   4.629   1.303 -0.0610  0.6093 -1.1359
    9CHTO   H43 3696   6.625   4.650   1.198 -1.1751  1.9548 -1.0444
    9CHTO   H44 3697   6.607   4.718   1.363 -3.6365 -0.8158  1.0277
    9CHTO   C25 3698   6.412   4.523   1.168  0.4012  0.0625  0.1532
    9CHTO   H53 3699   6.468   4.433   1.137 -1.0168 -0.3196 -1.4197
    9CHTO   O17 3700   6.274   4.490   1.187  0.2557 -0.0799  0.3827
    9CHTO   C32 3701   6.255   4.376   1.267 -0.2385 -0.5376  0.2531
    9CHTO   H60 3702   6.310   4.291   1.227 -0.6297 -0.6869  0.0347
    9CHTO   C36 3703   6.113   4.325   1.272 -0.1377  0.3268  1.0049
    9CHTO   O25 3704   6.070   4.265   1.153 -0.7680 -0.4377  0.5795
    9CHTO   H40 3705   5.996   4.212   1.176 -0.2119 -1.0040  1.0701
    9CHTO   O15 3706   6.417   4.625   1.063 -0.7380 -0.2755  0.1430
    9CHTO   C19 3707   6.389   4.596   0.923 -0.5867  0.6303  0.3657
    9CHTO   H47 3708   6.430   4.682   0.868 -0.3956  1.1971  1.3885
    9CHTO   C20 3709   6.464   4.474   0.863  0.3165 -0.0884 -0.3233
    9CHTO   H48 3710   6.442   4.380   0.915  0.3102  0.0588 -0.0578
    9CHTO   O19 3711   6.602   4.509   0.897  0.2143 -0.2529  0.1214
    9CHTO   H35 3712   6.663   4.463   0.843  1.5340  2.5487 -0.9013
    9CHTO   C21 3713   6.441   4.456   0.708 -0.2804  0.3204 -0.9663
    9CHTO   H49 3714   6.487   4.542   0.659 -0.4569  1.6153  1.0564
    9CHTO    N4 3715   6.511   4.342   0.651 -0.4400  0.2640  0.2837
    9CHTO   H41 3716   6.519   4.361   0.545 -1.6486 -2.6244 -0.3834
    9CHTO   H42 3717   6.611   4.342   0.692 -0.6373  1.4662  0.7979
    9CHTO   C22 3718   6.290   4.451   0.680  0.8697  0.5965  0.2933
    9CHTO   H50 3719   6.257   4.350   0.705  0.6766  0.2151 -1.4126
    9CHTO   O14 3720   6.214   4.558   0.750  0.1497 -0.3542  0.2349
    9CHTO   C23 3721   6.237   4.590   0.885  0.4461 -0.4202  0.1454
    9CHTO   H51 3722   6.184   4.516   0.946 -0.1213 -1.2225 -1.2859
    9CHTO   C34 3723   6.169   4.723   0.918 -0.8576 -0.2708 -0.8437
    9CHTO   O23 3724   6.153   4.745   1.057 -0.1310  0.4237  0.3662
    9CHTO   H38 3725   6.125   4.834   1.067  0.2838  1.0036 -3.2321
    9CHTO   O16 3726   6.266   4.483   0.542  0.4246  0.2673  0.3510
    9CHTO   C24 3727   6.142   4.382   0.486 -0.2976  0.5850  0.5800
    9CHTO   H52 3728   6.101   4.318   0.564 -0.9430 -0.4362 -0.5721
    9CHTO   C26 3729   6.192   4.300   0.366  0.3230  0.2969 -0.2346
    9CHTO   H54 3730   6.206   4.364   0.276 -0.5413  0.2911 -0.3811
    9CHTO   O20 3731   6.324   4.248   0.386 -0.3900  0.0394  0.1404
    9CHTO   H36 3732   6.341   4.197   0.309  1.0867  0.6754  0.0477
    9CHTO   C30 3733   6.075   4.199   0.345 -0.2344 -0.4095 -0.4405
    9CHTO   H58 3734   6.066   4.140   0.437  0.1905  0.4588  0.1585
    9CHTO    N6 3735   6.117   4.105   0.241  0.0518  0.1960  0.1690
    9CHTO   H45 3736   6.105   4.001   0.269 -0.8208  0.3473  0.3879
    9CHTO   H46 3737   6.080   4.125   0.142  2.1016  1.7022 -0.3221
    9CHTO   C33 3738   5.938   4.278   0.310  0.0067  0.2865  0.1800
    9CHTO   H61 3739   5.941   4.319   0.208  1.2303  0.0861  0.1218
    9CHTO   O18 3740   5.918   4.383   0.400  0.7458  0.1794 -0.0359
    9CHTO   C28 3741   6.028   4.470   0.439  0.4064  0.1290 -0.4320
    9CHTO   H56 3742   6.060   4.532   0.356  1.7238  0.7687  0.5506
    9CHTO   C35 3743   5.972   4.572   0.546 -0.1379 -0.1234  0.1859
    9CHTO   O24 3744   5.890   4.668   0.479  0.1452  0.1226 -0.2620
    9CHTO   H39 3745   5.832   4.639   0.411 -0.8984  1.3283  0.1131
    9CHTO    O9 3746   5.830   4.177   0.313  0.0307  0.1036  0.1438
    9CHTO   C13 3747   5.723   4.196   0.201  0.1581  0.4724 -0.0951
    9CHTO   H26 3748   5.772   4.230   0.107 -0.7731  0.6464 -0.5209
    9CHTO   C11 3749   5.603   4.290   0.249 -0.0609  0.0883  0.2600
    9CHTO   H24 3750   5.636   4.393   0.231  2.0602 -0.5395  0.4950
    9CHTO    O8 3751   5.594   4.289   0.391  0.4360  0.4719  0.3925
    9CHTO    H3 3752   5.543   4.217   0.423 -0.1370  0.4769 -0.4796
    9CHTO    C9 3753   5.477   4.268   0.167 -0.0985 -0.0119 -0.1598
    9CHTO   H22 3754   5.511   4.283   0.063  0.1064 -2.3120 -0.4690
    9CHTO    N2 3755   5.373   4.373   0.180 -0.0656  0.7808  1.0218
    9CHTO   H10 3756   5.378   4.434   0.092  1.5108  0.2855  0.7470
    9CHTO   H11 3757   5.280   4.320   0.197  0.8885 -1.8259 -1.4237
    9CHTO    C7 3758   5.435   4.115   0.179 -0.1632  0.1810 -0.0574
    9CHTO   H20 3759   5.403   4.099   0.074  1.2038  1.5824 -0.7097
    9CHTO    O4 3760   5.540   4.026   0.227  0.5519  0.2700  0.9718
    9CHTO   C14 3761   5.660   4.052   0.161 -0.9933 -0.3079  0.3722
    9CHTO   H27 3762   5.641   4.056   0.052  0.9487  0.7931  0.0523
    9CHTO   C18 3763   5.752   3.929   0.191 -0.7951  0.1872  0.7039
    9CHTO   O13 3764   5.855   3.911   0.098 -0.7877 -0.4971 -0.6230
    9CHTO    H7 3765   5.854   3.828   0.054  0.8670  0.0060 -1.6690
    9CHTO    O2 3766   5.329   4.094   0.272  0.2481 -0.6677 -0.6736
    9CHTO    C1 3767   5.268   3.966   0.289 -0.0623  0.1381  1.1405
    9CHTO   H14 3768   5.343   3.897   0.333 -0.7976  0.3313  2.7330
    9CHTO    C2 3769   5.209   3.899   0.155  0.3135  0.4298 -0.4481
    9CHTO   H15 3770   5.154   3.980   0.105  0.6024 -0.5967 -2.4775
    9CHTO    O6 3771   5.314   3.860   0.064 -0.0665  0.5157  0.5068
    9CHTO    H1 3772   5.334   3.769   0.074 -0.3116  0.4680  0.5601
    9CHTO    C3 3773   5.124   3.770   0.197  1.0205  0.1737  0.3031
    9CHTO   H16 3774   5.188   3.691   0.238  1.4010 -0.1900 -0.9919
    9CHTO    N1 3775   5.054   3.718   0.074 -0.1276 -0.0623  0.5143
    9CHTO    H8 3776   5.007   3.622   0.093 -3.1751  1.4708  1.0732
    9CHTO    H9 3777   5.128   3.694  -0.001 -2.0897  0.6809 -1.7377
    9CHTO    C4 3778   5.018   3.804   0.316 -0.6786  0.4684  0.4315
    9CHTO   H17 3779   4.952   3.882   0.277 -1.1058  0.2776  0.7686
    9CHTO    O1 3780   5.084   3.868   0.429 -0.2874  0.1169 -0.3889
    9CHTO    C5 3781   5.165   3.990   0.403 -0.2551 -0.1619 -0.3595
    9CHTO   H18 3782   5.090   4.062   0.370  0.9289  1.1729 -0.1447
    9CHTO   C16 3783   5.222   4.035   0.539  0.3510  0.5512 -0.7465
    9CHTO   O11 3784   5.124   4.110   0.612  0.0060  0.2409 -0.0457
    9CHTO    H5 3785   5.064   4.048   0.651  2.1148 -1.9713 -0.2017
    9CHTO    O3 3786   4.943   3.696   0.369 -0.3603  0.2264 -0.6788
    9CHTO    C6 3787   4.795   3.708   0.389 -0.8053 -0.3942  0.0553
    9CHTO   H19 3788   4.748   3.806   0.378  0.1872  0.2842  1.7021
    9CHTO    C8 3789   4.718   3.615   0.283 -0.0117  0.2100 -0.0269
    9CHTO   H21 3790   4.771   3.520   0.291  0.9664  0.8136  0.9207
    9CHTO    O7 3791   4.746   3.687   0.168 -0.1318  0.2173  0.6018
    9CHTO    H2 3792   4.834   3.668   0.144 -0.8554 -2.6056  0.0500
    9CHTO   C12 3793   4.561   3.599   0.327 -0.1237  0.9613 -0.3808
    9CHTO   H25 3794   4.509   3.697   0.319 -3.1993 -0.4235  1.8114
    9CHTO    N3 3795   4.496   3.500   0.237  0.1476  0.0749  0.1826
    9CHTO   H12 3796   4.538   3.401   0.252 -0.9826 -0.3237  0.7340
    9CHTO   H13 3797   4.391   3.512   0.255  0.3123  1.0820  0.5070
    9CHTO   C15 3798   4.560   3.560   0.477  0.1747 -0.3447 -0.9958
    9CHTO   H28 3799   4.595   3.459   0.496 -2.9972 -1.6137 -1.5871
    9CHTO   O10 3800   4.429   3.575   0.540 -0.2642 -0.2445  0.4067
    9CHTO    H4 3801   4.359   3.593   0.481 -0.0751 -0.7047  0.0381
    9CHTO    O5 3802   4.630   3.658   0.557  0.2784  0.4830 -0.4886
    9CHTO   C10 3803   4.770   3.665   0.536  0.7220  0.1734 -0.0468
    9CHTO   H23 3804   4.809   3.566   0.561 -1.6849 -1.0848 -1.1235
    9CHTO   C17 3805   4.834   3.765   0.635 -0.3180  0.2334 -0.1422
    9CHTO   O12 3806   4.793   3.746   0.771  0.4752 -0.6271 -0.0171
    9CHTO    H6 3807   4.820   3.818   0.826 -0.1153  1.3561 -2.2693
   10CHTO  H203 3808   3.425   6.430   2.369 -0.6130  2.7112 -0.0863
   10CHTO   O82 3809   3.493   6.439   2.305 -0.0269  0.2901  0.1307
   10CHTO  C123 3810   3.595   6.532   2.339  0.4491 -0.5655 -0.2146
   10CHTO  H227 3811   3.641   6.571   2.247  0.6325 -1.2634 -0.4189
   10CHTO   O77 3812   3.516   6.636   2.408 -0.4697 -0.2680  0.3058
   10CHTO  C118 3813   3.578   6.743   2.485 -0.4934 -0.2846 -0.1688
   10CHTO  H222 3814   3.636   6.801   2.413  1.9982 -2.6222 -0.1047
   10CHTO  C125 3815   3.473   6.842   2.550  0.1447  0.3462 -0.6739
   10CHTO   O84 3816   3.366   6.790   2.626  0.0577 -0.8565  0.0835
   10CHTO  H205 3817   3.336   6.855   2.686  0.1083 -1.2554  0.5426
   10CHTO  C114 3818   3.670   6.681   2.587  0.2427  0.0899  1.1175
   10CHTO  H218 3819   3.614   6.612   2.650  0.2700  0.1496  1.2083
   10CHTO  C116 3820   3.774   6.584   2.517  0.5311  0.3707  0.1680
   10CHTO  H220 3821   3.839   6.652   2.457 -1.2638 -1.3345 -3.9188
   10CHTO   O79 3822   3.860   6.531   2.625 -0.3579 -0.3561  0.0596
   10CHTO  H201 3823   3.906   6.600   2.670 -1.7820  0.9006 -0.3796
   10CHTO  C120 3824   3.704   6.470   2.433  0.3734  0.0971 -0.1411
   10CHTO  H224 3825   3.669   6.403   2.514  1.8614 -1.1656 -0.5330
   10CHTO   N21 3826   3.795   6.382   2.368  0.5033  0.2449  0.5208
   10CHTO  H211 3827   3.887   6.374   2.424 -0.7736 -0.2320  2.5982
   10CHTO  H212 3828   3.748   6.286   2.354  1.0291  0.2026 -1.0179
   10CHTO   O75 3829   3.734   6.786   2.656  0.1712  0.2839  0.0942
   10CHTO  C112 3830   3.712   6.738   2.819  0.0025 -0.3256  0.7944
   10CHTO  H216 3831   3.733   6.630   2.822  2.4399  0.1325  1.5645
   10CHTO   O73 3832   3.573   6.772   2.854  0.0308  0.1406  0.4437
   10CHTO  C113 3833   3.534   6.722   2.980  0.2557 -0.1038 -0.2610
   10CHTO  H217 3834   3.540   6.611   2.983  0.6713 -0.0728  0.2275
   10CHTO  C124 3835   3.393   6.767   3.006  0.1648  0.3341 -0.0176
   10CHTO   O83 3836   3.301   6.713   2.905 -0.7349  0.3516 -0.2061
   10CHTO  H204 3837   3.213   6.704   2.936 -0.4804 -0.6225  0.2341
   10CHTO  C109 3838   3.622   6.770   3.093 -0.0590 -0.0791  0.0298
   10CHTO  H213 3839   3.593   6.874   3.113  2.1976  0.3392  1.3142
   10CHTO  C110 3840   3.773   6.767   3.068  0.1924 -0.7639 -0.2180
   10CHTO  H214 3841   3.814   6.668   3.088  1.2293 -0.4816 -0.8954
   10CHTO   O78 3842   3.835   6.849   3.172  0.0972 -0.3940 -0.8532
   10CHTO  H200 3843   3.804   6.938   3.168  0.1876 -0.2886  0.5677
   10CHTO  C111 3844   3.798   6.817   2.921 -0.2055  0.5902 -0.5515
   10CHTO  H215 3845   3.768   6.923   2.916  1.7821  1.2086  0.6426
   10CHTO   N19 3846   3.943   6.818   2.882  0.2557 -0.0942 -0.3834
   10CHTO  H207 3847   4.007   6.802   2.968 -0.3622 -0.6161 -0.0085
   10CHTO  H208 3848   3.959   6.777   2.784 -0.7203 -0.2921 -0.4630
   10CHTO   O74 3849   3.583   6.687   3.212 -0.4811 -0.2089  0.5879
   10CHTO  C115 3850   3.603   6.756   3.352 -0.7348  0.5007 -0.9795
   10CHTO  H219 3851   3.694   6.720   3.399  0.0136  1.4097 -1.6911
   10CHTO   O76 3852   3.609   6.925   3.338 -0.8672  0.0434 -0.3855
   10CHTO  C122 3853   3.620   6.993   3.464 -0.3958  0.0326 -0.3075
   10CHTO  H226 3854   3.621   7.100   3.445  0.8758 -0.1013 -1.0882
   10CHTO  C126 3855   3.757   6.954   3.529  0.4272 -0.1832  0.2892
   10CHTO   O85 3856   3.869   7.014   3.458  0.2508 -0.2379 -0.1923
   10CHTO  H206 3857   3.876   7.102   3.489 -0.7364  0.0913 -0.8676
   10CHTO  C121 3858   3.503   6.953   3.557  0.3892 -0.0607 -0.8986
   10CHTO  H225 3859   3.539   6.999   3.651 -1.5516  1.7883 -1.0244
   10CHTO   O81 3860   3.390   7.023   3.511 -0.1535 -0.2531  0.1464
   10CHTO  H202 3861   3.319   7.011   3.570 -1.2494  0.3961 -1.0131
   10CHTO  C119 3862   3.487   6.800   3.576 -0.0542 -0.6911 -0.2879
   10CHTO  H223 3863   3.575   6.771   3.633 -0.1192 -0.0773  0.1346
   10CHTO  C117 3864   3.486   6.713   3.443 -0.7541 -0.3098  0.8895
   10CHTO  H221 3865   3.391   6.720   3.390 -0.2075  2.5346  0.1953
   10CHTO   N20 3866   3.505   6.569   3.483  0.2409 -0.7669 -0.1729
   10CHTO  H209 3867   3.601   6.541   3.524  0.6784  1.9680  0.7842
   10CHTO  H210 3868   3.488   6.514   3.392 -1.2530 -0.5436 -0.0515
   10CHTO   O80 3869   3.376   6.760   3.672  0.0053 -1.0716 -0.2080
   10CHTO  C103 3870   3.397   6.758   3.815  0.5867  0.3416  0.2958
   10CHTO  H190 3871   3.466   6.677   3.839  2.7568  1.5738 -1.4992
   10CHTO  C101 3872   3.425   6.893   3.903  0.6649 -0.3593 -0.7797
   10CHTO  H188 3873   3.369   6.972   3.853  1.2021  2.0483  2.2882
   10CHTO   O68 3874   3.555   6.916   3.878 -0.3412 -0.2318 -0.5469
   10CHTO  H168 3875   3.582   6.991   3.927 -1.7422  0.5843 -0.9959
   10CHTO   C99 3876   3.378   6.877   4.055  0.6297 -0.1319  0.1591
   10CHTO  H186 3877   3.434   6.796   4.106 -0.4144 -1.1291 -0.2703
   10CHTO   N17 3878   3.406   6.987   4.148 -0.0344 -0.3563 -0.4111
   10CHTO  H174 3879   3.479   7.057   4.112 -0.3379  0.3357  0.2971
   10CHTO  H175 3880   3.417   6.949   4.249 -0.3639  1.0489  0.1585
   10CHTO   C97 3881   3.227   6.838   4.057  0.2574  0.1065 -1.0283
   10CHTO  H184 3882   3.168   6.908   3.996  2.0356  0.8795 -1.8956
   10CHTO   O64 3883   3.229   6.708   3.998 -0.6622  0.1175 -0.8193
   10CHTO  C104 3884   3.253   6.714   3.857  0.4298  0.5037  0.5215
   10CHTO  H191 3885   3.176   6.776   3.810  1.1553  2.0744  1.3894
   10CHTO  C108 3886   3.225   6.568   3.816 -0.8573  0.1913  0.0010
   10CHTO   O71 3887   3.085   6.545   3.833 -0.4962 -0.1486  0.3510
   10CHTO  H171 3888   3.058   6.540   3.923 -1.4179  0.3862  0.1156
   10CHTO   O62 3889   3.165   6.803   4.182  0.0872 -0.2382  0.2409
   10CHTO   C91 3890   3.024   6.831   4.194 -0.4372 -0.1537  0.3349
   10CHTO  H178 3891   2.987   6.825   4.092 -0.0918 -1.2082  0.2668
   10CHTO   C92 3892   2.992   6.986   4.239  0.5834  0.6984 -0.1009
   10CHTO  H179 3893   3.038   7.001   4.337  0.0995 -0.9062  0.3846
   10CHTO   O66 3894   3.058   7.075   4.146  0.3215  0.0412  0.4799
   10CHTO  H166 3895   3.034   7.164   4.166 -2.9359 -0.6612  0.0105
   10CHTO   C93 3896   2.833   6.993   4.262  0.6532 -0.0118  0.0663
   10CHTO  H180 3897   2.788   6.959   4.167  1.4771  3.5055 -1.6821
   10CHTO   N16 3898   2.787   7.133   4.275  0.0437  0.0140  0.1026
   10CHTO  H172 3899   2.720   7.146   4.359 -0.0299  0.6519 -0.0527
   10CHTO  H173 3900   2.739   7.161   4.183  0.2914 -1.0273 -0.3523
   10CHTO   C94 3901   2.791   6.894   4.374 -0.2456  0.3114 -0.2754
   10CHTO  H181 3902   2.840   6.916   4.469 -0.9537  0.4813  0.0512
   10CHTO   O61 3903   2.828   6.761   4.334 -0.7730  0.3461  0.8772
   10CHTO   C95 3904   2.963   6.726   4.291 -0.4586  0.1383 -0.3293
   10CHTO  H182 3905   3.026   6.712   4.379  2.3500  3.6771 -1.6295
   10CHTO  C106 3906   2.957   6.582   4.221 -0.2345 -0.0337 -0.2563
   10CHTO   O69 3907   2.881   6.569   4.097 -0.2976 -0.3776 -0.1739
   10CHTO  H169 3908   2.791   6.590   4.111 -0.6139 -3.1529  2.4460
   10CHTO   O63 3909   2.617   6.892   4.389  0.7788 -0.1542 -0.3719
   10CHTO   C96 3910   2.580   6.809   4.516  0.7632  0.4119  0.4108
   10CHTO  H183 3911   2.662   6.818   4.588  0.4760 -1.9461  1.0588
   10CHTO   C98 3912   2.558   6.655   4.506 -0.3000 -0.4221 -0.2055
   10CHTO  H185 3913   2.486   6.637   4.424 -1.0636 -0.2527  0.4203
   10CHTO   O67 3914   2.675   6.579   4.463  0.5398  0.5187 -0.6803
   10CHTO  H167 3915   2.753   6.607   4.507  0.3044  0.5403 -0.2731
   10CHTO  C102 3916   2.499   6.581   4.638 -0.0773  0.3065  0.6435
   10CHTO  H189 3917   2.588   6.551   4.696 -0.1884 -2.2170 -0.4204
   10CHTO   N18 3918   2.429   6.448   4.613 -0.6783 -0.6808  0.3869
   10CHTO  H176 3919   2.336   6.460   4.559  0.4426 -2.4954 -2.0297
   10CHTO  H177 3920   2.387   6.406   4.704 -0.9123 -0.7065  0.2689
   10CHTO  C105 3921   2.412   6.671   4.729  0.7953  0.6909  0.2025
   10CHTO  H192 3922   2.306   6.656   4.710  1.0264  2.5401 -2.7619
   10CHTO   O65 3923   2.434   6.817   4.719  0.5935  0.3083 -0.3900
   10CHTO  C100 3924   2.447   6.870   4.587  0.6763 -0.9074 -0.0645
   10CHTO  H187 3925   2.360   6.843   4.525  0.6827  0.8640 -0.8606
   10CHTO  C107 3926   2.454   7.026   4.599 -0.6462 -0.6218 -0.1930
   10CHTO   O70 3927   2.560   7.071   4.681 -0.0682  0.2146  0.3619
   10CHTO  H170 3928   2.553   7.161   4.708  1.4393  0.4666 -0.0496
   10CHTO   O57 3929   2.450   6.612   4.889  0.1531  0.5981 -0.5754
   10CHTO   C85 3930   2.384   6.655   5.010 -0.6682 -1.1559  0.4352
   10CHTO  H157 3931   2.290   6.701   4.973  0.9116  1.5218 -0.4203
   10CHTO   C83 3932   2.470   6.770   5.073 -0.4244  0.0031 -0.3037
   10CHTO  H155 3933   2.476   6.846   4.995  0.5912 -0.3727 -0.5939
   10CHTO   O56 3934   2.603   6.718   5.098 -0.4731 -0.1757  0.3861
   10CHTO  H135 3935   2.589   6.638   5.144 -2.4553  0.3180  0.7041
   10CHTO   C81 3936   2.407   6.831   5.200 -0.5024  0.6032 -0.0331
   10CHTO  H153 3937   2.308   6.866   5.172 -0.0408  0.0917 -2.4622
   10CHTO   N14 3938   2.486   6.949   5.257 -0.0891  0.0035  0.0977
   10CHTO  H141 3939   2.420   7.034   5.260 -1.0187 -0.6348 -1.7635
   10CHTO  H142 3940   2.572   6.974   5.199 -1.6000  1.8689 -1.4388
   10CHTO   C79 3941   2.390   6.719   5.310  0.3204  0.0554 -0.2179
   10CHTO  H151 3942   2.320   6.758   5.384  1.7005  2.1881 -0.0148
   10CHTO   O52 3943   2.312   6.608   5.249 -0.0519  0.2087 -0.6286
   10CHTO   C86 3944   2.360   6.555   5.123 -0.7286  0.5561  0.1319
   10CHTO  H158 3945   2.456   6.508   5.152 -0.2827  2.3939  1.7423
   10CHTO   C90 3946   2.270   6.435   5.072 -0.1753 -0.5472  0.4964
   10CHTO   O60 3947   2.351   6.341   4.993 -0.2129  1.2996 -0.2650
   10CHTO  H138 3948   2.389   6.388   4.921  0.6657 -0.1407 -0.7504
   10CHTO   O50 3949   2.508   6.659   5.374 -0.1689  0.1424  0.0656
   10CHTO   C73 3950   2.573   6.566   5.458 -0.4589  0.3286 -0.5584
   10CHTO  H145 3951   2.541   6.462   5.438  0.3407  0.3073 -1.7747
   10CHTO   C74 3952   2.541   6.596   5.603 -0.2527  0.2565  0.2686
   10CHTO  H146 3953   2.431   6.588   5.605 -0.1835 -1.9819 -2.0300
   10CHTO   O54 3954   2.595   6.492   5.680 -0.1147 -0.3670  0.3491
   10CHTO  H133 3955   2.578   6.403   5.656 -1.0121 -0.4673  1.2769
   10CHTO   C75 3956   2.592   6.744   5.633  0.2012 -0.3944 -0.0695
   10CHTO  H147 3957   2.539   6.815   5.567  1.3946  1.8212  1.2753
   10CHTO   N13 3958   2.550   6.789   5.762 -0.2969  0.0393  0.2664
   10CHTO  H139 3959   2.626   6.774   5.837  1.7521  0.9920 -1.5626
   10CHTO  H140 3960   2.524   6.894   5.767  2.7269  0.7479  1.8264
   10CHTO   C76 3961   2.738   6.756   5.598 -0.0951 -0.2414 -0.0692
   10CHTO  H148 3962   2.799   6.694   5.665  0.8555  1.2078  0.4499
   10CHTO   O49 3963   2.764   6.715   5.456 -0.6688 -0.0113 -0.3790
   10CHTO   C77 3964   2.730   6.574   5.435  0.4548  0.5652 -1.0644
   10CHTO  H149 3965   2.781   6.513   5.509 -2.4403 -0.1777  0.3758
   10CHTO   C88 3966   2.766   6.531   5.289 -0.3336  0.0628 -0.0527
   10CHTO   O58 3967   2.891   6.547   5.260  0.2019  0.5005  0.1302
   10CHTO  H136 3968   2.903   6.516   5.172 -2.0654  1.5108 -0.5770
   10CHTO   O51 3969   2.783   6.902   5.616 -0.5095 -0.2026 -0.0503
   10CHTO   C78 3970   2.947   6.920   5.653 -0.4786  0.3814  0.2349
   10CHTO  H150 3971   2.998   6.821   5.654  0.6646  0.9387 -1.3519
   10CHTO   C80 3972   2.956   6.977   5.795  0.4747  0.0564  0.2214
   10CHTO  H152 3973   2.890   7.066   5.801 -1.9899 -1.6060 -1.4605
   10CHTO   O55 3974   2.900   6.871   5.882 -0.2920 -0.6236  0.2741
   10CHTO  H134 3975   2.909   6.895   5.972  1.0761  0.0024 -0.0097
   10CHTO   C84 3976   3.093   7.015   5.838 -0.4093  0.1834  0.2307
   10CHTO  H156 3977   3.136   6.918   5.863  0.3224  0.3208 -0.5001
   10CHTO   N15 3978   3.102   7.088   5.967  0.2293 -0.1192  0.1099
   10CHTO  H143 3979   3.155   7.028   6.038  0.5244  0.3132  0.2570
   10CHTO  H144 3980   3.005   7.106   6.009 -0.9031  1.0993 -2.8773
   10CHTO   C87 3981   3.184   7.072   5.727 -0.4643  0.1814  0.5557
   10CHTO  H159 3982   3.160   7.175   5.703  2.0745  0.7885  0.5593
   10CHTO   O53 3983   3.163   7.001   5.585 -0.2375  0.6417 -0.4668
   10CHTO   C82 3984   3.025   7.000   5.549  0.0678  0.2681 -0.1133
   10CHTO  H154 3985   2.988   7.103   5.550 -0.1781  0.2582 -3.6641
   10CHTO   C89 3986   3.022   6.948   5.402 -0.2160 -0.0008 -0.0230
   10CHTO   O59 3987   3.058   6.814   5.397  0.1387  0.1124 -0.1701
   10CHTO  H137 3988   3.090   6.783   5.479 -1.0440  1.6682  0.9307
   10CHTO   O45 3989   3.360   7.072   5.760 -0.5471 -0.4014 -0.5237
   10CHTO   C67 3990   3.431   7.185   5.700 -0.1721  0.1790 -1.1210
   10CHTO  H124 3991   3.382   7.218   5.609  0.2441  2.3816 -0.5561
   10CHTO   C65 3992   3.439   7.306   5.794 -0.3679 -0.6133  0.6605
   10CHTO  H122 3993   3.341   7.335   5.833 -0.2040  0.7475  0.1173
   10CHTO   O44 3994   3.490   7.412   5.710  0.2253 -0.5195  0.2885
   10CHTO  H102 3995   3.416   7.465   5.687 -0.8982 -2.8520 -1.7362
   10CHTO   C63 3996   3.536   7.270   5.913  0.0400 -0.3454  0.2517
   10CHTO  H120 3997   3.501   7.178   5.960 -1.6718  1.3445  2.3946
   10CHTO   N11 3998   3.528   7.365   6.035  0.0760  0.1974 -0.0535
   10CHTO  H108 3999   3.564   7.316   6.124  0.6493  0.6020 -0.0578
   10CHTO  H109 4000   3.432   7.409   6.047  0.8054  1.6022  0.7763
   10CHTO   C61 4001   3.681   7.242   5.854 -0.1625  0.0826 -0.4700
   10CHTO  H118 4002   3.736   7.193   5.936  1.5026  0.5542 -1.2843
   10CHTO   O40 4003   3.685   7.149   5.738 -0.7667  0.8322  0.3699
   10CHTO   C68 4004   3.566   7.130   5.653  0.1913 -0.0614 -0.1700
   10CHTO  H125 4005   3.551   7.021   5.637  1.6255 -0.1178 -1.2321
   10CHTO   C72 4006   3.593   7.196   5.509 -0.2071  0.2758  0.1101
   10CHTO   O48 4007   3.607   7.095   5.410  0.5927 -0.0024  0.4349
   10CHTO  H105 4008   3.696   7.067   5.409  0.9955  1.1957  1.5859
   10CHTO   O38 4009   3.754   7.365   5.814  0.2891 -0.3621 -0.5632
   10CHTO   C55 4010   3.897   7.351   5.803 -0.0566 -0.7312 -0.2609
   10CHTO  H112 4011   3.928   7.247   5.785  0.5925 -0.6107  0.1342
   10CHTO   C56 4012   3.958   7.410   5.931 -0.0947  0.5965 -0.6601
   10CHTO  H113 4013   3.908   7.506   5.947  1.8987  1.5363  0.1631
   10CHTO   O42 4014   3.930   7.333   6.053 -0.9733 -0.0473 -0.4020
   10CHTO  H100 4015   3.962   7.245   6.045  3.1769  1.2636  0.8210
   10CHTO   C57 4016   4.115   7.446   5.910  0.8069 -0.0211 -0.3294
   10CHTO  H114 4017   4.185   7.363   5.904  1.1862  0.3111 -0.5258
   10CHTO   N10 4018   4.162   7.521   6.031  0.0677  0.3276 -0.6048
   10CHTO  H106 4019   4.121   7.491   6.127  1.9825 -0.3827  0.0239
   10CHTO  H107 4020   4.269   7.510   6.039 -0.0554 -0.6247 -0.1452
   10CHTO   C58 4021   4.134   7.529   5.780 -0.2774  0.1169  0.3916
   10CHTO  H115 4022   4.074   7.622   5.784 -1.0264 -0.2973 -0.9736
   10CHTO   O37 4023   4.084   7.442   5.676  0.0746 -0.0974  0.3915
   10CHTO   C59 4024   3.940   7.428   5.678 -0.2452 -0.3357  0.3371
   10CHTO  H116 4025   3.903   7.530   5.686  0.2781 -0.1528  0.4315
   10CHTO   C70 4026   3.894   7.358   5.553  0.4107 -0.2840 -0.1563
   10CHTO   O46 4027   3.910   7.217   5.546 -1.1256  0.2661 -0.6703
   10CHTO  H103 4028   3.861   7.179   5.617 -0.4437  0.5516 -0.0413
   10CHTO   O39 4029   4.292   7.560   5.749 -0.5637  0.4948  0.1093
   10CHTO   C60 4030   4.310   7.696   5.702  0.0053  0.6665  0.1378
   10CHTO  H117 4031   4.216   7.745   5.677 -0.8334  0.7050  3.1846
   10CHTO   C62 4032   4.379   7.780   5.815  0.1508 -0.5910 -0.3059
   10CHTO  H119 4033   4.307   7.784   5.900  0.0290 -0.9489 -0.3919
   10CHTO   O43 4034   4.509   7.708   5.841  0.1412 -0.3687  0.1188
   10CHTO  H101 4035   4.569   7.762   5.888 -2.6095  3.0356 -0.0734
   10CHTO   C66 4036   4.403   7.933   5.768 -0.0224  0.2285 -0.1504
   10CHTO  H123 4037   4.309   7.985   5.748 -0.9899 -2.1303 -1.9724
   10CHTO   N12 4038   4.471   8.028   5.863  0.3024 -0.2012  0.2481
   10CHTO  H110 4039   4.578   8.035   5.851  0.6106  0.6588  3.2325
   10CHTO  H111 4040   4.441   8.013   5.966 -1.0021  0.6458  0.0042
   10CHTO   C69 4041   4.469   7.934   5.622 -0.1201 -0.3732  0.1949
   10CHTO  H126 4042   4.571   7.890   5.631 -0.0975 -0.3398  0.1050
   10CHTO   O41 4043   4.402   7.849   5.520 -0.1703  0.1009  0.6294
   10CHTO   C64 4044   4.395   7.700   5.572 -0.3021  0.0206  0.1831
   10CHTO  H121 4045   4.495   7.660   5.598 -0.1419  0.5140  0.3225
   10CHTO   C71 4046   4.336   7.611   5.460  0.3660  0.2351  0.3982
   10CHTO   O47 4047   4.442   7.595   5.361 -0.2590 -0.0088 -0.2710
   10CHTO  H104 4048   4.427   7.520   5.308 -0.0047 -0.7788  0.7407
   10CHTO   O34 4049   4.484   8.091   5.564 -0.0953  0.1657  0.0076
   10CHTO   C49 4050   4.485   8.173   5.468 -0.3457  0.1378  0.5015
   10CHTO   H91 4051   4.448   8.121   5.380  0.9422 -1.7354  1.0560
   10CHTO   C47 4052   4.628   8.220   5.440 -0.7699  0.7855 -0.1269
   10CHTO   H89 4053   4.638   8.293   5.357  0.9769 -0.0947 -0.7098
   10CHTO   O33 4054   4.700   8.098   5.410  0.0285  0.8952  0.0910
   10CHTO   H70 4055   4.698   8.032   5.478  1.0317  0.1548 -0.5752
   10CHTO   C45 4056   4.689   8.297   5.573 -1.0005  0.2779  0.0500
   10CHTO   H87 4057   4.675   8.216   5.645  1.6870  1.4117  1.9162
   10CHTO    N8 4058   4.838   8.318   5.558 -0.4960  0.0640  0.0020
   10CHTO   H75 4059   4.876   8.392   5.626  2.0305 -1.9524  0.8790
   10CHTO   H76 4060   4.897   8.227   5.561  0.4447  0.6413 -0.5571
   10CHTO   C43 4061   4.595   8.424   5.600 -0.3606 -0.7907 -0.1318
   10CHTO   H85 4062   4.628   8.467   5.694 -3.6238 -1.0994  1.2312
   10CHTO   O29 4063   4.456   8.385   5.607  0.1089 -0.1114 -0.0489
   10CHTO   C50 4064   4.393   8.297   5.512  0.1228 -0.3127  0.6722
   10CHTO   H92 4065   4.300   8.252   5.549 -1.0861 -1.1129 -3.1287
   10CHTO   C54 4066   4.339   8.370   5.383  0.4134 -0.0124  0.4894
   10CHTO   O36 4067   4.241   8.468   5.406  0.4897  0.5364 -0.7071
   10CHTO   H72 4068   4.254   8.507   5.490  2.5932 -0.8514 -0.3437
   10CHTO   O27 4069   4.611   8.523   5.502  0.2055  0.4490 -0.0508
   10CHTO   C37 4070   4.587   8.642   5.422  0.3981 -0.1392 -0.2902
   10CHTO   H79 4071   4.522   8.623   5.336  0.9281 -0.1504 -0.6914
   10CHTO   C38 4072   4.536   8.760   5.514 -0.3154  0.4622 -0.0363
   10CHTO   H80 4073   4.610   8.770   5.594 -0.1774 -0.7755  0.0082
   10CHTO   O31 4074   4.412   8.731   5.587 -0.5127 -0.0586  0.4926
   10CHTO   H68 4075   4.332   8.731   5.538 -0.6814  0.3492  0.7673
   10CHTO   C39 4076   4.520   8.897   5.430 -0.0774  1.4197  0.6005
   10CHTO   H81 4077   4.436   8.885   5.361  0.5125  0.1652  0.0760
   10CHTO    N7 4078   4.492   9.016   5.506 -0.4746  0.2952 -0.5984
   10CHTO   H73 4079   4.387   9.042   5.502 -0.6137 -0.4221 -2.1332
   10CHTO   H74 4080   4.506   8.992   5.610  0.2126  1.4396 -0.4138
   10CHTO   C40 4081   4.656   8.928   5.348  0.4714  0.8848 -0.5517
   10CHTO   H82 4082   4.733   8.965   5.415 -0.9934  0.2559  1.5213
   10CHTO   O26 4083   4.698   8.816   5.279 -0.9058 -0.2617  0.7302
   10CHTO   C41 4084   4.723   8.692   5.355  0.2168  0.0428 -0.3918
   10CHTO   H83 4085   4.782   8.719   5.443 -0.5710  1.6815 -0.3469
   10CHTO   C52 4086   4.796   8.592   5.259  0.6728  0.6734  0.2594
   10CHTO   O35 4087   4.711   8.554   5.121  0.1803 -0.4466  0.4071
   10CHTO   H71 4088   4.773   8.560   5.051 -1.6198 -1.3761 -1.3158
   10CHTO   O28 4089   4.646   9.006   5.223 -0.0329  0.1411 -1.0354
   10CHTO   C42 4090   4.643   9.156   5.221  0.3274 -0.3963 -0.5113
   10CHTO   H84 4091   4.629   9.192   5.323  2.8557 -1.8363  0.3995
   10CHTO   C44 4092   4.531   9.213   5.133 -0.0801  0.3927 -0.0136
   10CHTO   H86 4093   4.557   9.191   5.030  0.8811 -0.8139  0.4693
   10CHTO   O32 4094   4.410   9.145   5.159 -0.1346  0.1547 -0.7355
   10CHTO   H69 4095   4.421   9.052   5.158  0.9971  0.2533 -3.2569
   10CHTO   C48 4096   4.521   9.366   5.162  0.0136 -0.6961 -0.6730
   10CHTO   H90 4097   4.503   9.389   5.266  0.3520 -0.7692 -0.5956
   10CHTO    N9 4098   4.407   9.433   5.092 -0.2270  0.2728  0.4046
   10CHTO   H77 4099   4.320   9.385   5.133  1.4115 -1.6910  1.6467
   10CHTO   H78 4100   4.419   9.410   4.987 -1.3774  0.8857  0.1274
   10CHTO   C51 4101   4.664   9.438   5.134  0.9652 -0.0371  0.3866
   10CHTO   H93 4102   4.685   9.433   5.027  0.5605  0.7194  0.2669
   10CHTO   O30 4103   4.769   9.370   5.208  0.3697 -0.3166 -0.1067
   10CHTO   C46 4104   4.767   9.221   5.172  0.3216  0.1932 -0.1624
   10CHTO   H88 4105   4.765   9.221   5.063 -0.6206 -0.1588 -0.1494
   10CHTO   C53 4106   4.908   9.166   5.214  0.2306 -0.0285  0.2034
   10CHTO   O72 4107   4.940   9.044   5.149  0.2866  0.2183 -0.2268
   10CHTO  H199 4108   5.031   9.040   5.124  0.4011 -0.7297  0.3512
   10CHTO   O22 4109   4.668   9.578   5.178 -0.0245  0.6449  0.5226
   10CHTO   C31 4110   4.774   9.670   5.135 -0.0376 -0.1846  0.6601
   10CHTO   H59 4111   4.749   9.768   5.180 -0.8799 -0.9401  1.8794
   10CHTO   C29 4112   4.915   9.635   5.184  0.0861  0.0645 -0.4797
   10CHTO   H57 4113   4.933   9.529   5.161  0.9243  0.0261  0.3169
   10CHTO   O21 4114   4.914   9.638   5.333  0.2911  0.0322  0.2503
   10CHTO   H37 4115   4.940   9.720   5.368  0.0416  0.4142 -0.4349
   10CHTO   C27 4116   5.020   9.726   5.123 -0.7735  0.1990  0.0624
   10CHTO   H55 4117   4.998   9.828   5.158 -0.7844  0.6592 -1.2521
   10CHTO    N5 4118   5.158   9.682   5.166 -0.3296  0.8211  0.3073
   10CHTO   H43 4119   5.155   9.631   5.261 -0.7020  2.1580  1.0251
   10CHTO   H44 4120   5.224   9.767   5.164 -0.0842  0.6996  2.5986
   10CHTO   C25 4121   5.008   9.723   4.968 -0.3568  0.2924  0.1228
   10CHTO   H53 4122   5.028   9.628   4.916 -2.7394  0.3064 -0.8535
   10CHTO   O17 4123   4.880   9.773   4.934 -0.0380  0.2782  0.1245
   10CHTO   C32 4124   4.772   9.689   4.977  0.8931 -0.1606 -0.1620
   10CHTO   H60 4125   4.773   9.592   4.927 -0.9343 -0.2364 -0.0776
   10CHTO   C36 4126   4.648   9.770   4.938 -0.2445 -0.2282 -0.1667
   10CHTO   O25 4127   4.545   9.683   4.896  0.0040  0.4310 -0.2607
   10CHTO   H40 4128   4.573   9.650   4.813 -0.3674 -3.3365  1.0198
   10CHTO   O15 4129   5.094   9.834   4.906 -0.0701  0.1307 -0.2866
   10CHTO   C19 4130   5.135   9.845   4.768 -0.4166  0.4149  0.4994
   10CHTO   H47 4131   5.089   9.759   4.717 -1.2764  0.2837  1.4866
   10CHTO   C20 4132   5.072   9.968   4.694 -0.2008 -0.0198 -0.0400
   10CHTO   H48 4133   5.090  10.059   4.753  0.6757 -0.1658 -0.0694
   10CHTO   O19 4134   4.934   9.945   4.686 -0.0024 -0.3842  0.0269
   10CHTO   H35 4135   4.905   9.860   4.658  1.1212 -1.6872  2.6265
   10CHTO   C21 4136   5.132   9.990   4.550 -0.4626 -1.0518 -0.2978
   10CHTO   H49 4137   5.086   9.919   4.482 -0.4525  0.6068 -2.0798
   10CHTO    N4 4138   5.093  10.120   4.493  0.2462 -0.2588 -0.5114
   10CHTO   H41 4139   5.121  10.191   4.569  1.7789 -0.2111 -1.1121
   10CHTO   H42 4140   4.987  10.123   4.469 -0.2361 -0.2537  1.5190
   10CHTO   C22 4141   5.288   9.967   4.544 -0.0653  0.1448 -0.2567
   10CHTO   H50 4142   5.330  10.044   4.608  0.3620 -2.1742  2.3533
   10CHTO   O14 4143   5.309   9.842   4.603  0.2278 -0.0194 -0.7722
   10CHTO   C23 4144   5.287   9.840   4.742  0.2749 -0.4777 -0.7581
   10CHTO   H51 4145   5.336   9.929   4.784 -0.3800  0.2488 -1.5311
   10CHTO   C34 4146   5.362   9.719   4.804  0.4384 -0.5844 -0.5895
   10CHTO   O23 4147   5.506   9.714   4.783  0.2788  0.1647 -0.1226
   10CHTO   H38 4148   5.517   9.652   4.713  1.9511  1.0567 -0.6718
   10CHTO   O16 4149   5.356   9.952   4.416 -0.2507 -0.5245 -0.7169
   10CHTO   C24 4150   5.498  10.009   4.433 -0.4335 -0.5119 -0.4719
   10CHTO   H52 4151   5.534   9.997   4.535 -1.5068 -1.7735 -0.2411
   10CHTO   C26 4152   5.510  10.152   4.389  0.2985 -0.6595 -0.6946
   10CHTO   H54 4153   5.476  10.160   4.283 -0.1595  0.7208 -0.4412
   10CHTO   O20 4154   5.423  10.223   4.478 -0.2569  0.1639 -0.0727
   10CHTO   H36 4155   5.404  10.308   4.442 -0.7969  0.0698 -0.0059
   10CHTO   C30 4156   5.652  10.209   4.395  0.6865 -0.2446 -0.0711
   10CHTO   H58 4157   5.680  10.197   4.501  0.7035 -1.9936 -0.2531
   10CHTO    N6 4158   5.667  10.348   4.346 -0.1833  0.3805 -0.2441
   10CHTO   H45 4159   5.659  10.352   4.238  1.4238 -0.0069 -0.3941
   10CHTO   H46 4160   5.757  10.401   4.374  0.3104  0.1283 -1.3283
   10CHTO   C33 4161   5.738  10.105   4.308 -0.4868  0.7368 -0.0706
   10CHTO   H61 4162   5.706  10.107   4.202 -0.2631 -1.2649 -0.1988
   10CHTO   O18 4163   5.724   9.968   4.357  0.2851 -0.6092  0.0063
   10CHTO   C28 4164   5.587   9.922   4.343  0.0834  0.1189  0.2622
   10CHTO   H56 4165   5.559   9.934   4.238 -0.1303 -0.8554  0.2056
   10CHTO   C35 4166   5.567   9.774   4.398  0.1059 -0.0454  0.3222
   10CHTO   O24 4167   5.635   9.687   4.305  0.0342  0.6190  0.1591
   10CHTO   H39 4168   5.727   9.693   4.322  0.1804 -3.4143  1.2969
   10CHTO    O9 4169   5.879  10.145   4.308 -0.1578 -0.1615  0.4976
   10CHTO   C13 4170   5.945  10.132   4.176 -0.6130  0.8841  1.0574
   10CHTO   H26 4171   5.896  10.203   4.107  0.0522  1.1205  0.8185
   10CHTO   C11 4172   5.951   9.978   4.118  0.8973  0.3749 -0.2100
   10CHTO   H24 4173   5.851   9.964   4.075  0.9315  1.1243 -0.5429
   10CHTO    O8 4174   5.973   9.885   4.231 -0.1495 -0.1024 -0.3955
   10CHTO    H3 4175   5.948   9.795   4.223 -1.2059  0.2972 -1.6939
   10CHTO    C9 4176   6.055   9.966   4.007  0.5715 -0.7424 -0.2782
   10CHTO   H22 4177   6.038  10.056   3.947  2.5866  1.1838  1.9602
   10CHTO    N2 4178   6.034   9.852   3.918 -0.2495  0.6096  0.6523
   10CHTO   H10 4179   6.130   9.847   3.869 -1.1250  2.3566 -1.3193
   10CHTO   H11 4180   5.955   9.870   3.846  0.8311  0.7875 -0.5220
   10CHTO    C7 4181   6.198   9.984   4.069  0.1485 -0.3080  0.7125
   10CHTO   H20 4182   6.267  10.016   3.989 -0.0212 -2.0084 -0.1211
   10CHTO    O4 4183   6.199  10.083   4.176  0.3335 -0.2513 -0.4148
   10CHTO   C14 4184   6.094  10.185   4.182  0.5433  0.2371  0.1806
   10CHTO   H27 4185   6.105  10.256   4.098  0.7973 -0.3289 -0.2652
   10CHTO   C18 4186   6.114  10.273   4.308 -0.6042  0.6089 -0.3237
   10CHTO   O13 4187   6.037  10.390   4.289  0.4818  0.1956  0.1042
   10CHTO    H7 4188   6.007  10.420   4.373  1.0805 -0.5923  0.6076
   10CHTO    O2 4189   6.267   9.848   4.111  0.4737 -0.2097 -0.4124
   10CHTO    C1 4190   6.369   9.846   4.214 -0.2031  0.0909 -0.6411
   10CHTO   H14 4191   6.326   9.898   4.302 -2.4542 -0.8543 -1.1509
   10CHTO    C2 4192   6.513   9.906   4.172  0.3247  0.6550  0.6666
   10CHTO   H15 4193   6.539   9.876   4.069  2.3966  0.6592  1.1851
   10CHTO    O6 4194   6.505  10.045   4.161 -0.7186 -0.6719 -0.0875
   10CHTO    H1 4195   6.494  10.081   4.247 -0.2740  1.2692 -0.8213
   10CHTO    C3 4196   6.641   9.871   4.270 -0.6012 -0.3847  0.7654
   10CHTO   H16 4197   6.631   9.936   4.359  0.3186  0.8832 -0.0462
   10CHTO    N1 4198   6.774   9.895   4.198  0.3491 -0.3018 -0.3342
   10CHTO    H8 4199   6.749   9.946   4.106 -0.3851  3.8425  2.0441
   10CHTO    H9 4200   6.837   9.965   4.251  0.9300 -1.7525  0.9270
   10CHTO    C4 4201   6.621   9.722   4.322 -0.2975 -0.0419 -0.1818
   10CHTO   H17 4202   6.657   9.657   4.242 -0.2668 -1.4303  0.9190
   10CHTO    O1 4203   6.486   9.681   4.356  0.2932 -0.3430 -0.3109
   10CHTO    C5 4204   6.390   9.698   4.253  0.1670  0.6571 -0.3112
   10CHTO   H18 4205   6.432   9.648   4.165  0.0158  1.4287 -0.8317
   10CHTO   C16 4206   6.265   9.625   4.297  0.1888  0.2823 -0.2491
   10CHTO   O11 4207   6.224   9.680   4.425 -0.2041 -0.3144  0.5925
   10CHTO    H5 4208   6.240   9.623   4.498 -0.2444 -0.4298  0.5123
   10CHTO    O3 4209   6.704   9.705   4.441  0.0227 -0.0660  0.4228
   10CHTO    C6 4210   6.715   9.561   4.488 -0.0101  0.0825 -0.8739
   10CHTO   H19 4211   6.650   9.494   4.432 -0.9081  2.1998 -2.4488
   10CHTO    C8 4212   6.864   9.518   4.459  1.1853 -0.1042 -0.2605
   10CHTO   H21 4213   6.933   9.581   4.514  0.9970  1.1183 -1.3782
   10CHTO    O7 4214   6.885   9.524   4.313 -0.4299  0.1970  0.1771
   10CHTO    H2 4215   6.815   9.484   4.265 -1.1615  1.3327  0.2771
   10CHTO   C12 4216   6.880   9.366   4.498 -0.6524 -0.5256  0.4586
   10CHTO   H25 4217   6.822   9.307   4.424 -1.1295  1.0997 -0.4922
   10CHTO    N3 4218   7.020   9.313   4.473  0.4589 -0.2261 -0.7307
   10CHTO   H12 4219   6.998   9.214   4.437 -1.3318  0.2100 -0.9001
   10CHTO   H13 4220   7.051   9.371   4.387 -0.6984  0.7275 -0.5153
   10CHTO   C15 4221   6.833   9.341   4.649  0.2047 -0.5609  0.5873
   10CHTO   H28 4222   6.903   9.383   4.721 -0.4009  1.6907 -0.1038
   10CHTO   O10 4223   6.812   9.191   4.689 -0.1148 -0.0362 -0.6115
   10CHTO    H4 4224   6.781   9.192   4.777 -1.1885 -1.4187 -0.9482
   10CHTO    O5 4225   6.706   9.392   4.671  0.3076  0.0009  0.0122
   10CHTO   C10 4226   6.690   9.533   4.641 -0.5047  0.0054 -0.5165
   10CHTO   H23 4227   6.757   9.592   4.703  2.2165 -2.6633 -0.7928
   10CHTO   C17 4228   6.550   9.579   4.682  0.0851 -0.3325  0.4778
   10CHTO   O12 4229   6.535   9.577   4.825 -0.4339 -0.4164  0.6283
   10CHTO    H6 4230   6.550   9.665   4.855 -1.4468  0.0542 -0.1751
   11CHTO  H203 4231   4.950   5.135   1.618 -0.9538  0.7936 -0.6230
   11CHTO   O82 4232   5.022   5.155   1.562 -0.2135  0.0753  0.0648
   11CHTO  C123 4233   5.053   5.295   1.578  0.1703  0.0591  0.2030
   11CHTO  H227 4234   5.072   5.316   1.684  1.4418 -0.4306  0.0745
   11CHTO   O77 4235   5.184   5.297   1.512 -0.1763  0.5572  0.5111
   11CHTO  C118 4236   5.250   5.415   1.505  0.2621 -0.2665  0.7626
   11CHTO  H222 4237   5.255   5.456   1.607  2.5047 -0.8357  0.9139
   11CHTO  C125 4238   5.396   5.393   1.453  0.1009 -0.0779  0.6175
   11CHTO   O84 4239   5.476   5.312   1.542  0.4636  0.5621 -0.0231
   11CHTO  H205 4240   5.563   5.301   1.508  0.9901 -1.5824  1.8643
   11CHTO  C114 4241   5.165   5.516   1.427  0.8997 -0.9883  0.0040
   11CHTO  H218 4242   5.131   5.467   1.336 -1.4232 -0.0944  0.3485
   11CHTO  C116 4243   5.026   5.532   1.502  0.1046 -0.8004  0.0298
   11CHTO  H220 4244   5.043   5.561   1.608  0.9578 -0.9633 -0.0591
   11CHTO   O79 4245   4.948   5.626   1.431  0.0604  0.2373  0.2579
   11CHTO  H201 4246   4.854   5.621   1.438 -0.1244 -1.1513 -2.5476
   11CHTO  C120 4247   4.960   5.395   1.507  0.7009  0.0741 -0.3533
   11CHTO  H224 4248   4.942   5.359   1.404  1.7235 -1.0600 -0.1510
   11CHTO   N21 4249   4.826   5.404   1.566 -0.6656 -0.1291 -0.3253
   11CHTO  H211 4250   4.783   5.501   1.550 -1.8023 -0.4197  0.8684
   11CHTO  H212 4251   4.766   5.327   1.520 -0.8079  0.2618 -0.7940
   11CHTO   O75 4252   5.242   5.641   1.400  0.5689 -0.0088  0.0181
   11CHTO  C112 4253   5.287   5.738   1.513  0.0049  0.0060 -0.1525
   11CHTO  H216 4254   5.319   5.675   1.597  0.8787  0.0839 -0.4158
   11CHTO   O73 4255   5.167   5.813   1.546 -0.4160 -0.5050 -0.1825
   11CHTO  C113 4256   5.186   5.902   1.654 -0.4615  0.3116 -0.6479
   11CHTO  H217 4257   5.205   5.832   1.738  2.3461  0.5874 -1.0183
   11CHTO  C124 4258   5.052   5.962   1.697  0.8918  0.2531  0.6979
   11CHTO   O83 4259   4.957   5.869   1.746 -0.7709 -0.5907 -0.7731
   11CHTO  H204 4260   4.972   5.863   1.838  1.3559  0.9716 -0.9750
   11CHTO  C109 4261   5.293   6.006   1.618 -0.1098 -0.7419 -0.4695
   11CHTO  H213 4262   5.243   6.068   1.541 -0.7578 -3.1226 -2.0304
   11CHTO  C110 4263   5.430   5.944   1.563 -0.1812 -0.2924  0.0412
   11CHTO  H214 4264   5.478   5.898   1.650 -0.9432  0.1471  0.7017
   11CHTO   O78 4265   5.511   6.050   1.502 -0.0743  0.3840 -0.5048
   11CHTO  H200 4266   5.559   6.100   1.566  1.3337  1.0716 -2.0465
   11CHTO  C111 4267   5.400   5.834   1.461 -0.0178 -0.9259 -0.1866
   11CHTO  H215 4268   5.359   5.888   1.375  0.1804 -0.4709  0.0041
   11CHTO   N19 4269   5.517   5.761   1.416 -0.0416  0.1378 -0.2687
   11CHTO  H207 4270   5.521   5.731   1.312  1.6704  1.0226 -0.4676
   11CHTO  H208 4271   5.605   5.810   1.456 -0.6280  0.9527  0.0245
   11CHTO   O74 4272   5.317   6.092   1.733  0.1328 -0.0712 -0.1180
   11CHTO  C115 4273   5.340   6.243   1.694 -0.0494 -0.2762 -0.5492
   11CHTO  H219 4274   5.309   6.263   1.592 -1.3311 -0.9034 -0.2880
   11CHTO   O76 4275   5.249   6.342   1.786 -0.2408  0.1579  0.6552
   11CHTO  C122 4276   5.270   6.329   1.926 -0.1771 -0.1440 -0.1617
   11CHTO  H226 4277   5.208   6.248   1.964  0.6595 -0.8467 -0.2541
   11CHTO  C126 4278   5.222   6.459   1.985 -0.6574 -0.0841 -0.2267
   11CHTO   O85 4279   5.270   6.583   1.932 -0.2816  0.2891 -0.1249
   11CHTO  H206 4280   5.209   6.614   1.869 -0.6829 -0.6983 -0.2239
   11CHTO  C121 4281   5.421   6.299   1.963  0.1946  0.3206 -0.2409
   11CHTO  H225 4282   5.438   6.353   2.059 -2.7423 -1.9921  1.6870
   11CHTO   O81 4283   5.433   6.157   1.991  0.2419  0.1120 -0.3929
   11CHTO  H202 4284   5.375   6.138   2.062  0.2648  0.1336 -0.3682
   11CHTO  C119 4285   5.514   6.351   1.855  0.5949 -0.3215 -0.5644
   11CHTO  H223 4286   5.487   6.455   1.838  0.0776 -0.6557 -1.8896
   11CHTO  C117 4287   5.493   6.278   1.716 -0.6252  0.5876 -0.1267
   11CHTO  H221 4288   5.547   6.183   1.709  0.1857  0.9960  0.5577
   11CHTO   N20 4289   5.538   6.363   1.599  0.3615  0.4737 -0.2262
   11CHTO  H209 4290   5.468   6.443   1.580 -1.3344 -0.7966  0.5521
   11CHTO  H210 4291   5.567   6.317   1.506  0.7307  1.5324 -0.6477
   11CHTO   O80 4292   5.668   6.365   1.903  0.0850  0.1120  0.0909
   11CHTO  C103 4293   5.735   6.509   1.928 -0.1960  0.1883  0.6350
   11CHTO  H190 4294   5.844   6.515   1.937 -0.3063  2.5734  0.7412
   11CHTO  C101 4295   5.693   6.623   1.820  0.0956  0.1672 -0.4820
   11CHTO  H188 4296   5.586   6.629   1.801  0.3181  0.0715 -1.7523
   11CHTO   O68 4297   5.749   6.592   1.697 -0.2591 -0.3025  0.2831
   11CHTO  H168 4298   5.746   6.499   1.682 -1.3882 -0.3927  0.9721
   11CHTO   C99 4299   5.748   6.763   1.873 -0.2585  0.2481 -0.3465
   11CHTO  H186 4300   5.857   6.753   1.889 -0.7502  1.2879  4.3768
   11CHTO   N17 4301   5.719   6.891   1.794 -0.6093 -0.0714  0.0041
   11CHTO  H174 4302   5.615   6.902   1.768 -0.5142  0.8410 -0.0101
   11CHTO  H175 4303   5.787   6.907   1.711 -0.5952 -0.0941  0.0119
   11CHTO   C97 4304   5.684   6.787   2.014 -0.2001  0.4878 -0.3227
   11CHTO  H184 4305   5.577   6.792   1.990  0.3481 -0.0434 -3.0530
   11CHTO   O64 4306   5.716   6.681   2.100  0.4023 -0.1967 -0.2285
   11CHTO  C104 4307   5.677   6.546   2.073 -0.1089  0.0486 -0.0799
   11CHTO  H191 4308   5.569   6.533   2.071 -0.1769  0.4807  0.4930
   11CHTO  C108 4309   5.731   6.449   2.183  0.1093  0.3511 -0.9998
   11CHTO   O71 4310   5.652   6.464   2.300  0.3003 -0.3264 -0.7755
   11CHTO  H171 4311   5.648   6.384   2.350  1.8952  0.8043  1.2488
   11CHTO   O62 4312   5.735   6.901   2.086 -0.2779  0.1226 -0.2604
   11CHTO   C91 4313   5.650   6.952   2.191  0.0296  0.8324 -0.2881
   11CHTO  H178 4314   5.548   6.922   2.166  0.3872 -0.7042 -0.0079
   11CHTO   C92 4315   5.654   7.110   2.181 -0.0702  0.3759  0.7487
   11CHTO  H179 4316   5.635   7.148   2.079  0.5696  2.5728  1.4316
   11CHTO   O66 4317   5.549   7.151   2.268 -1.0003  0.2697 -0.3174
   11CHTO  H166 4318   5.579   7.224   2.319 -1.6258  0.3453 -0.0539
   11CHTO   C93 4319   5.793   7.163   2.225  0.3990 -0.2916 -0.9217
   11CHTO  H180 4320   5.780   7.263   2.268  0.8610 -1.1667  1.2953
   11CHTO   N16 4321   5.891   7.188   2.119 -0.2451  0.1804 -0.3336
   11CHTO  H172 4322   5.875   7.151   2.018  1.2398  1.4345 -1.0509
   11CHTO  H173 4323   5.916   7.293   2.115 -0.7668  0.2900 -0.6924
   11CHTO   C94 4324   5.854   7.077   2.342  0.5677 -0.3913  0.2136
   11CHTO  H181 4325   5.931   7.008   2.307  1.0871  0.2153  0.1572
   11CHTO   O61 4326   5.761   6.993   2.411  0.1997 -0.1197 -0.6376
   11CHTO   C95 4327   5.676   6.903   2.337 -0.9030  0.5597  0.3671
   11CHTO  H182 4328   5.723   6.805   2.323 -0.3800  0.5256  2.2567
   11CHTO  C106 4329   5.538   6.874   2.430  0.2125 -0.1406 -0.6470
   11CHTO   O69 4330   5.429   6.808   2.362 -0.3648  0.4136  0.8544
   11CHTO  H169 4331   5.454   6.769   2.280 -1.2193  0.6448  0.4818
   11CHTO   O63 4332   5.928   7.193   2.453  0.5865  0.2904 -0.2785
   11CHTO   C96 4333   6.036   7.132   2.522  0.3041  0.0467 -0.2176
   11CHTO  H183 4334   6.064   7.040   2.469 -1.4297 -1.3957  1.2791
   11CHTO   C98 4335   6.002   7.094   2.670  0.4313 -0.8493 -0.5469
   11CHTO  H185 4336   5.969   7.189   2.714  3.4185 -0.4037  0.8920
   11CHTO   O67 4337   5.887   7.007   2.668  0.0295  0.5533 -0.2246
   11CHTO  H167 4338   5.891   6.937   2.606  2.2615  0.5228 -0.1048
   11CHTO  C102 4339   6.115   7.034   2.763  0.5334 -0.4538 -0.3154
   11CHTO  H189 4340   6.139   6.934   2.723  1.5318 -0.1610 -0.4563
   11CHTO   N18 4341   6.076   7.017   2.904 -0.2744  0.7317  0.5094
   11CHTO  H176 4342   6.158   7.011   2.974  0.9991  0.6188 -0.9716
   11CHTO  H177 4343   5.999   7.085   2.939 -1.0818  0.7609 -1.2880
   11CHTO  C105 4344   6.230   7.135   2.746 -0.0615 -0.4683  0.8349
   11CHTO  H192 4345   6.193   7.229   2.785 -0.6988 -1.2883  2.2429
   11CHTO   O65 4346   6.265   7.164   2.606 -0.1285  0.7181 -0.3393
   11CHTO  C100 4347   6.157   7.224   2.533 -0.1634  0.8532  0.5413
   11CHTO  H187 4348   6.124   7.323   2.568 -0.1194  1.2213 -0.4589
   11CHTO  C107 4349   6.205   7.245   2.386  0.3572 -0.1753  0.7438
   11CHTO   O70 4350   6.288   7.364   2.386 -0.1113  0.1554  0.3973
   11CHTO  H170 4351   6.371   7.348   2.428 -1.4621 -0.8455  2.8215
   11CHTO   O57 4352   6.345   7.087   2.840  0.1650  0.8065  0.5817
   11CHTO   C85 4353   6.431   7.183   2.899  0.0089  0.5683 -0.0704
   11CHTO  H157 4354   6.354   7.255   2.933  1.3683  1.7022  0.7011
   11CHTO   C83 4355   6.532   7.263   2.803 -0.2530 -0.9225 -0.4979
   11CHTO  H155 4356   6.476   7.321   2.729 -2.4493 -0.3876  1.5250
   11CHTO   O56 4357   6.600   7.174   2.723 -0.4155 -0.4244  0.3502
   11CHTO  H135 4358   6.667   7.125   2.768  0.7774  1.1879  0.3726
   11CHTO   C81 4359   6.622   7.359   2.895 -0.4485  0.4250 -0.0678
   11CHTO  H153 4360   6.555   7.421   2.954 -0.3120 -0.0547  0.5956
   11CHTO   N14 4361   6.700   7.463   2.824  1.0475 -0.1066 -0.2436
   11CHTO  H141 4362   6.793   7.499   2.864  0.3580  1.5701 -0.0897
   11CHTO  H142 4363   6.634   7.544   2.799  1.8063  0.2554 -1.0881
   11CHTO   C79 4364   6.697   7.268   2.997 -0.9387  0.3845 -0.7447
   11CHTO  H151 4365   6.759   7.332   3.060 -0.4672  0.3151 -1.1398
   11CHTO   O52 4366   6.601   7.205   3.092 -0.4287  0.0915  0.1775
   11CHTO   C86 4367   6.507   7.117   3.022  0.0828  0.2445  0.2042
   11CHTO  H158 4368   6.565   7.027   2.995 -1.0208 -0.1268 -0.9844
   11CHTO   C90 4369   6.407   7.072   3.126  0.6581  0.1722 -0.3986
   11CHTO   O60 4370   6.470   7.026   3.245 -0.6070 -0.2166 -0.3320
   11CHTO  H138 4371   6.414   6.967   3.291  0.8545 -1.7923 -0.4927
   11CHTO   O50 4372   6.791   7.178   2.938  0.4505  0.6741 -0.3207
   11CHTO   C73 4373   6.907   7.095   2.947  0.9471 -0.5207  0.0238
   11CHTO  H145 4374   6.899   7.028   3.033  1.0962 -0.2356  0.2615
   11CHTO   C74 4375   7.036   7.189   2.960 -0.5682  0.7778  0.2868
   11CHTO  H146 4376   7.036   7.241   3.057  1.0367 -0.5188  1.0069
   11CHTO   O54 4377   7.153   7.110   2.962 -0.2347  0.3447  0.2178
   11CHTO  H133 4378   7.227   7.167   2.971  0.7101 -0.1946 -3.1186
   11CHTO   C75 4379   7.038   7.284   2.840 -0.1577  0.0664  0.2296
   11CHTO  H147 4380   6.952   7.353   2.845  0.7403  1.1727  0.5988
   11CHTO   N13 4381   7.145   7.386   2.847 -0.6831 -0.5424 -0.3941
   11CHTO  H139 4382   7.211   7.372   2.931  0.9088  0.8450 -1.3820
   11CHTO  H140 4383   7.204   7.386   2.757 -0.5621 -1.6536 -0.3309
   11CHTO   C76 4384   7.034   7.190   2.704 -0.2255  0.2849 -0.2197
   11CHTO  H148 4385   7.126   7.133   2.701 -0.5142 -0.1430 -1.1132
   11CHTO   O49 4386   6.924   7.099   2.705  0.7304 -0.2845 -0.3907
   11CHTO   C77 4387   6.910   7.014   2.814  0.2998 -0.3626  0.5411
   11CHTO  H149 4388   6.997   6.948   2.814  1.5267  1.1856 -1.7050
   11CHTO   C88 4389   6.782   6.928   2.798 -0.7778  0.1490  0.0525
   11CHTO   O58 4390   6.801   6.837   2.659 -0.1735 -0.9198 -0.1273
   11CHTO  H136 4391   6.885   6.798   2.650  0.4177  0.1307  0.7213
   11CHTO   O51 4392   7.010   7.279   2.576  0.1680 -0.0834  0.1549
   11CHTO   C78 4393   7.103   7.247   2.463  0.3048 -0.1104 -0.3535
   11CHTO  H150 4394   7.171   7.161   2.484 -1.0568 -0.5622  2.4951
   11CHTO   C80 4395   7.183   7.374   2.430 -0.1627 -0.2515  0.1511
   11CHTO  H152 4396   7.110   7.457   2.423 -1.6640 -1.7388 -2.4208
   11CHTO   O55 4397   7.278   7.393   2.536 -0.2334  0.0356 -0.2110
   11CHTO  H134 4398   7.322   7.475   2.542 -0.0845 -0.0676  0.0973
   11CHTO   C84 4399   7.261   7.363   2.293  0.5823 -0.0739 -0.1707
   11CHTO  H156 4400   7.329   7.280   2.310 -1.5808 -2.2864 -1.9134
   11CHTO   N15 4401   7.336   7.488   2.257  0.2339  0.1219 -0.0348
   11CHTO  H143 4402   7.276   7.540   2.185  0.2387  0.2344  0.0437
   11CHTO  H144 4403   7.424   7.453   2.208 -0.1265 -0.4033 -0.3087
   11CHTO   C87 4404   7.167   7.324   2.180 -0.4549  0.3054  0.2953
   11CHTO  H159 4405   7.090   7.401   2.167 -0.0735  0.6026 -0.2301
   11CHTO   O53 4406   7.092   7.184   2.229  0.5878 -0.3692 -0.0337
   11CHTO   C82 4407   7.010   7.203   2.348 -0.1055  0.2348 -0.0237
   11CHTO  H154 4408   6.941   7.285   2.325  0.2918  0.6639  0.2955
   11CHTO   C89 4409   6.928   7.072   2.375  0.2027  0.2105  0.4221
   11CHTO   O59 4410   6.864   7.015   2.263  0.1836  0.1030 -0.5079
   11CHTO  H137 4411   6.927   7.013   2.193  1.2335  0.3605  0.4190
   11CHTO   O45 4412   7.247   7.280   2.041  0.2649 -0.1307 -0.3824
   11CHTO   C67 4413   7.164   7.264   1.926 -0.3176  0.1352  0.3364
   11CHTO  H124 4414   7.079   7.203   1.959 -1.5631  2.1870  0.9680
   11CHTO   C65 4415   7.116   7.404   1.877  0.2159  0.8383 -0.1538
   11CHTO  H122 4416   7.200   7.467   1.906 -1.8002  1.7612  4.1455
   11CHTO   O44 4417   7.001   7.445   1.955  0.6419 -0.5053 -0.1039
   11CHTO  H102 4418   6.979   7.535   1.946 -1.6965 -1.0307  0.0899
   11CHTO   C63 4419   7.108   7.421   1.720  0.3793  0.1018 -0.3218
   11CHTO  H120 4420   7.210   7.436   1.684  0.5165 -1.7896 -0.7688
   11CHTO   N11 4421   7.041   7.546   1.670  0.4723  0.1999 -0.5187
   11CHTO  H108 4422   7.009   7.601   1.756 -1.5212  0.1536 -1.2077
   11CHTO  H109 4423   6.951   7.529   1.616  0.7727  0.0012 -0.9607
   11CHTO   C61 4424   7.063   7.282   1.649 -0.4586 -0.1091 -0.3234
   11CHTO  H118 4425   7.087   7.289   1.542  0.7345 -0.1292 -0.0707
   11CHTO   O40 4426   7.134   7.166   1.701 -0.4316  0.4487 -0.2875
   11CHTO   C68 4427   7.234   7.179   1.809 -0.3070  0.1071  0.0770
   11CHTO  H125 4428   7.321   7.230   1.762  0.1518  0.5691  1.3901
   11CHTO   C72 4429   7.283   7.048   1.868 -0.4401  0.0612 -0.0856
   11CHTO   O48 4430   7.180   6.956   1.892  0.3076  0.2278 -0.0322
   11CHTO  H105 4431   7.167   6.894   1.822  0.9738 -0.1433  0.1625
   11CHTO   O38 4432   6.923   7.263   1.674 -0.3131  0.4532 -0.1827
   11CHTO   C55 4433   6.856   7.180   1.579 -0.1360 -0.2180 -0.3001
   11CHTO  H112 4434   6.923   7.111   1.527 -0.1126  0.4607 -1.1736
   11CHTO   C56 4435   6.772   7.267   1.479  0.0848 -1.1313 -0.6908
   11CHTO  H113 4436   6.714   7.345   1.530  2.6860  0.9334 -0.7784
   11CHTO   O42 4437   6.868   7.342   1.401  0.0861 -0.2106 -0.2808
   11CHTO  H100 4438   6.894   7.287   1.330  0.6939  0.6827 -0.7539
   11CHTO   C57 4439   6.687   7.178   1.386 -0.1043  0.0451  0.2054
   11CHTO  H114 4440   6.757   7.118   1.328  0.4671  0.1262  0.7974
   11CHTO   N10 4441   6.609   7.246   1.284 -0.0879  0.2266  0.5702
   11CHTO  H106 4442   6.562   7.330   1.334 -2.6959 -1.2819  0.7566
   11CHTO  H107 4443   6.533   7.181   1.242  1.4921 -0.6394 -1.0153
   11CHTO   C58 4444   6.604   7.082   1.466  0.1620 -0.2354 -0.2908
   11CHTO  H115 4445   6.533   7.138   1.530 -0.5345 -1.2042 -0.2039
   11CHTO   O37 4446   6.683   7.003   1.553  0.1484 -0.4455 -0.8709
   11CHTO   C59 4447   6.754   7.085   1.646  0.1548 -0.4653  0.1519
   11CHTO  H116 4448   6.686   7.145   1.706 -1.5813 -1.0470 -1.1670
   11CHTO   C70 4449   6.826   6.992   1.744  1.0942  0.1543 -0.5451
   11CHTO   O46 4450   6.875   7.069   1.860 -0.4646  0.4146 -0.0645
   11CHTO  H103 4451   6.966   7.052   1.877 -0.2514  0.1963 -1.3359
   11CHTO   O39 4452   6.547   6.966   1.362  0.2726  0.4263 -0.0226
   11CHTO   C60 4453   6.404   6.938   1.357  0.0545  0.3023  0.0744
   11CHTO  H117 4454   6.364   6.996   1.440  3.2092  1.2140  1.0399
   11CHTO   C62 4455   6.343   6.989   1.221 -1.0087  0.3234 -0.4501
   11CHTO  H119 4456   6.357   7.099   1.214 -2.8787  0.7265  1.4472
   11CHTO   O43 4457   6.418   6.922   1.113  0.0628 -0.0608 -0.0930
   11CHTO  H101 4458   6.422   6.830   1.130 -2.9649 -0.0945  0.8444
   11CHTO   C66 4459   6.182   6.954   1.211 -0.5293 -0.1203 -0.0859
   11CHTO  H123 4460   6.137   7.000   1.299  1.8718  1.4870  0.3525
   11CHTO   N12 4461   6.118   7.015   1.093 -0.6523  0.4026  0.2282
   11CHTO  H110 4462   6.048   6.957   1.034  0.4732 -0.4092 -0.3346
   11CHTO  H111 4463   6.190   7.062   1.028 -0.9682 -1.0934 -1.2340
   11CHTO   C69 4464   6.158   6.800   1.211  0.5452 -0.0180 -0.0149
   11CHTO  H126 4465   6.215   6.744   1.134  0.9157  1.0710 -0.5522
   11CHTO   O41 4466   6.222   6.759   1.366  0.1575  0.7826  0.1926
   11CHTO   C64 4467   6.384   6.787   1.382 -0.3781  0.4922  0.5830
   11CHTO  H121 4468   6.442   6.723   1.312 -0.2027  2.3957 -1.0784
   11CHTO   C71 4469   6.423   6.756   1.528  0.4913 -0.0108 -0.7424
   11CHTO   O47 4470   6.452   6.618   1.545  0.3088  0.1073  0.4439
   11CHTO  H104 4471   6.374   6.584   1.585  0.9790  0.2608  1.9127
   11CHTO   O34 4472   6.002   6.752   1.207 -0.0138  0.3962  0.7358
   11CHTO   C49 4473   5.879   6.778   1.291 -0.6005  0.1027 -1.2762
   11CHTO   H91 4474   5.909   6.838   1.377 -0.0624 -1.8170 -0.0771
   11CHTO   C47 4475   5.842   6.638   1.345  0.0237  0.2255  0.0801
   11CHTO   H89 4476   5.757   6.654   1.414  0.3625  3.7411 -0.2284
   11CHTO   O33 4477   5.955   6.589   1.422  0.2786  0.6928  0.1936
   11CHTO   H70 4478   5.933   6.500   1.441  1.4933  0.0365 -1.3931
   11CHTO   C45 4479   5.792   6.548   1.220 -0.0126 -0.6682 -0.6094
   11CHTO   H87 4480   5.877   6.553   1.150  0.4557  4.8450  0.1758
   11CHTO    N8 4481   5.780   6.409   1.266 -0.3565 -0.5209  0.1273
   11CHTO   H75 4482   5.873   6.399   1.320  0.1943 -2.1872 -1.0796
   11CHTO   H76 4483   5.698   6.399   1.336  0.8574  0.8785  1.8046
   11CHTO   C43 4484   5.664   6.623   1.142 -0.1286 -0.1637 -0.3503
   11CHTO   H85 4485   5.649   6.563   1.052 -3.0572 -2.1076  1.3235
   11CHTO   O29 4486   5.709   6.760   1.112  0.4486 -0.2796  0.1359
   11CHTO   C50 4487   5.768   6.846   1.213 -0.2493  0.5737 -0.1306
   11CHTO   H92 4488   5.807   6.937   1.164  3.1911 -0.0228  1.3640
   11CHTO   C54 4489   5.661   6.900   1.297  0.0021 -0.0679 -0.1723
   11CHTO   O36 4490   5.701   6.964   1.411 -0.1845  0.7525 -0.3397
   11CHTO   H72 4491   5.750   7.042   1.395  2.6667 -0.8636  0.2024
   11CHTO   O27 4492   5.539   6.632   1.216 -0.1321 -0.3953  0.4258
   11CHTO   C37 4493   5.438   6.561   1.286 -0.6371  0.6177  0.8449
   11CHTO   H79 4494   5.481   6.478   1.343  1.4336 -0.0650 -1.6420
   11CHTO   C38 4495   5.369   6.655   1.388  0.0112 -0.5917 -0.5973
   11CHTO   H80 4496   5.332   6.745   1.337  0.8948 -0.3952 -0.9040
   11CHTO   O31 4497   5.474   6.705   1.472  0.5372  0.0964  0.0618
   11CHTO   H68 4498   5.448   6.773   1.531 -1.7813 -0.3056 -0.4701
   11CHTO   C39 4499   5.249   6.591   1.467 -0.2046 -0.0578  0.2435
   11CHTO   H81 4500   5.296   6.515   1.529 -0.5090  0.1743  0.7563
   11CHTO    N7 4501   5.193   6.688   1.566 -0.3067  0.3468 -0.3177
   11CHTO   H73 4502   5.245   6.691   1.661  1.6343  1.5481 -1.3783
   11CHTO   H74 4503   5.086   6.679   1.563 -0.3371  1.0709 -1.9448
   11CHTO   C40 4504   5.146   6.519   1.377 -0.4716  0.4442  0.1143
   11CHTO   H82 4505   5.077   6.589   1.330  0.7022  0.8526 -1.0305
   11CHTO   O26 4506   5.218   6.437   1.280  0.3173  0.2838 -0.6945
   11CHTO   C41 4507   5.324   6.508   1.195  0.0122 -0.4031  0.0704
   11CHTO   H83 4508   5.283   6.592   1.137  1.2383 -0.7868 -1.3892
   11CHTO   C52 4509   5.367   6.399   1.093 -0.5895 -0.5061 -0.3093
   11CHTO   O35 4510   5.261   6.342   1.014 -0.6122  0.1569  0.3919
   11CHTO   H71 4511   5.206   6.290   1.070  2.0006 -0.5790  2.3941
   11CHTO   O28 4512   5.064   6.427   1.449 -0.1930  0.4040 -0.3945
   11CHTO   C42 4513   4.934   6.375   1.406 -0.1787 -0.7882 -0.0275
   11CHTO   H84 4514   4.933   6.400   1.300 -1.0797  1.2733  0.4268
   11CHTO   C44 4515   4.811   6.445   1.464 -0.2851 -0.7886  0.0276
   11CHTO   H86 4516   4.819   6.451   1.573  0.0167 -2.4198  0.1072
   11CHTO   O32 4517   4.819   6.579   1.424 -0.0033  0.5410  0.0361
   11CHTO   H69 4518   4.802   6.592   1.333  3.8523 -0.9528 -1.0212
   11CHTO   C48 4519   4.679   6.373   1.424 -0.3634 -0.2958  0.3899
   11CHTO   H90 4520   4.681   6.367   1.315  1.1061 -0.9080  0.4454
   11CHTO    N9 4521   4.562   6.443   1.474 -0.1925 -0.9035 -0.2749
   11CHTO   H77 4522   4.472   6.417   1.421 -1.2339  1.1974  0.4314
   11CHTO   H78 4523   4.575   6.550   1.469 -3.0349 -0.5412 -0.3572
   11CHTO   C51 4524   4.688   6.229   1.478  0.2298  1.2714  0.7056
   11CHTO   H93 4525   4.710   6.236   1.585  3.1346 -0.7182  0.2905
   11CHTO   O30 4526   4.787   6.153   1.406  0.0039 -0.1508 -0.7333
   11CHTO   C46 4527   4.927   6.219   1.424 -0.0969  0.2893 -0.1711
   11CHTO   H88 4528   4.964   6.196   1.524  0.0981  0.7471 -0.1388
   11CHTO   C53 4529   5.023   6.142   1.336  0.2710 -0.2357  0.6320
   11CHTO   O72 4530   5.156   6.187   1.344 -0.1287  0.1750  0.0777
   11CHTO  H199 4531   5.209   6.164   1.270 -1.2287  0.4499 -0.8082
   11CHTO   O22 4532   4.573   6.148   1.459  0.1340 -0.2872 -0.1181
   11CHTO   C31 4533   4.535   6.050   1.562  0.5991 -0.0350 -0.3985
   11CHTO   H59 4534   4.624   6.034   1.625  1.7889  1.2205 -1.7092
   11CHTO   C29 4535   4.427   6.098   1.654  0.3183 -0.2502  0.0785
   11CHTO   H57 4536   4.358   6.142   1.581  1.5336  0.4305 -0.6824
   11CHTO   O21 4537   4.468   6.205   1.743 -0.4959  0.8637  0.1237
   11CHTO   H37 4538   4.500   6.283   1.701  2.0847  0.3185  0.9578
   11CHTO   C27 4539   4.358   5.980   1.744 -0.0435  0.3015  0.2427
   11CHTO   H55 4540   4.426   5.966   1.829 -1.1953  1.7791  1.4398
   11CHTO    N5 4541   4.226   6.024   1.797 -0.1995  0.5725  0.1460
   11CHTO   H43 4542   4.235   6.101   1.871 -0.6683  0.9125 -0.1492
   11CHTO   H44 4543   4.150   5.955   1.831  0.2117 -0.6730 -1.3647
   11CHTO   C25 4544   4.351   5.841   1.677 -0.2798  0.1073 -0.3700
   11CHTO   H53 4545   4.274   5.832   1.599 -1.3286 -0.2503  0.6987
   11CHTO   O17 4546   4.476   5.819   1.607 -0.5041  0.3981  0.4181
   11CHTO   C32 4547   4.502   5.912   1.502  1.1643  0.7945 -0.6564
   11CHTO   H60 4548   4.429   5.931   1.423  0.8948  1.4011 -0.2600
   11CHTO   C36 4549   4.619   5.852   1.436  0.5132 -0.7249  0.5870
   11CHTO   O25 4550   4.733   5.827   1.517  0.4533 -0.5303 -0.4997
   11CHTO   H40 4551   4.744   5.896   1.579 -0.6643 -0.2644 -0.5850
   11CHTO   O15 4552   4.329   5.725   1.770 -0.4750 -0.0740 -0.1131
   11CHTO   C19 4553   4.339   5.582   1.742  0.0205 -0.0207  0.0878
   11CHTO   H47 4554   4.337   5.570   1.633 -1.4016  1.2408 -0.0409
   11CHTO   C20 4555   4.458   5.509   1.787 -0.6771 -0.3569 -0.2028
   11CHTO   H48 4556   4.477   5.525   1.894  0.8828 -1.0460 -0.3546
   11CHTO   O19 4557   4.573   5.566   1.725  0.5664 -0.8101  0.3886
   11CHTO   H35 4558   4.642   5.515   1.763  0.8535  0.3224  1.3981
   11CHTO   C21 4559   4.452   5.355   1.766 -0.0427  0.3241 -0.1167
   11CHTO   H49 4560   4.474   5.336   1.661  4.0343  0.6047  0.6292
   11CHTO    N4 4561   4.562   5.292   1.840 -0.3094  0.2939  0.1211
   11CHTO   H41 4562   4.513   5.232   1.915  0.9017 -0.3978  0.3683
   11CHTO   H42 4563   4.630   5.227   1.788 -1.1498 -0.6836  0.2270
   11CHTO   C22 4564   4.312   5.300   1.802  1.2150  0.1792  0.6686
   11CHTO   H50 4565   4.304   5.287   1.910 -3.5401  1.3719  0.5616
   11CHTO   O14 4566   4.205   5.379   1.748  0.5591  0.9908  0.5580
   11CHTO   C23 4567   4.203   5.514   1.789 -1.0330 -0.1543 -0.3015
   11CHTO   H51 4568   4.201   5.506   1.899  0.3244 -2.1374 -0.3853
   11CHTO   C34 4569   4.085   5.580   1.729 -0.0268 -0.0038 -0.9491
   11CHTO   O23 4570   4.055   5.714   1.770  0.0754 -0.4157 -0.1796
   11CHTO   H38 4571   4.020   5.711   1.857  1.9723 -1.3115  0.5889
   11CHTO   O16 4572   4.298   5.172   1.735 -0.3541  0.0798  0.0455
   11CHTO   C24 4573   4.189   5.055   1.802  0.0165  0.0763  0.0680
   11CHTO   H52 4574   4.143   5.097   1.891  0.5301  1.2949 -0.2261
   11CHTO   C26 4575   4.269   4.929   1.829 -0.1222 -0.3202  0.3671
   11CHTO   H54 4576   4.346   4.919   1.751  0.3001 -0.2379  0.7691
   11CHTO   O20 4577   4.351   4.933   1.945  0.4002 -0.2276  0.3800
   11CHTO   H36 4578   4.434   4.977   1.944  1.6995 -2.5777  2.1843
   11CHTO   C30 4579   4.184   4.802   1.844 -0.6832  0.0867  1.3863
   11CHTO   H58 4580   4.140   4.795   1.944 -0.2132 -0.1544  1.5808
   11CHTO    N6 4581   4.259   4.677   1.815  0.1808 -0.5723  0.7300
   11CHTO   H45 4582   4.207   4.583   1.828  1.5884 -1.3031  1.1843
   11CHTO   H46 4583   4.301   4.675   1.716 -0.5692 -2.3381  0.4256
   11CHTO   C33 4584   4.060   4.808   1.749  0.1097  0.1940 -0.3961
   11CHTO   H61 4585   4.082   4.795   1.642  2.2704 -1.9589  0.2577
   11CHTO   O18 4586   3.991   4.929   1.759  0.1841 -0.3603 -0.2173
   11CHTO   C28 4587   4.073   5.030   1.695  1.1298 -0.1715 -0.4773
   11CHTO   H56 4588   4.114   4.985   1.604  1.2174  0.0153 -0.5309
   11CHTO   C35 4589   3.997   5.153   1.654  0.0137 -0.5025 -0.5559
   11CHTO   O24 4590   3.907   5.227   1.743 -0.2869  0.7761  0.4308
   11CHTO   H39 4591   3.889   5.307   1.697 -2.2987 -0.2756 -0.6740
   11CHTO    O9 4592   3.976   4.702   1.785 -0.0716  0.1448  0.7280
   11CHTO   C13 4593   3.827   4.684   1.701 -0.0838  0.2126 -0.7477
   11CHTO   H26 4594   3.803   4.781   1.653  0.5334  0.3423 -0.7848
   11CHTO   C11 4595   3.716   4.631   1.797  0.1347  0.1984  0.0468
   11CHTO   H24 4596   3.697   4.701   1.879 -2.2981 -0.8496  0.4229
   11CHTO    O8 4597   3.762   4.511   1.862  0.0304 -0.1121  0.2797
   11CHTO    H3 4598   3.834   4.536   1.917  1.0970  0.1535 -1.2209
   11CHTO    C9 4599   3.588   4.597   1.715 -0.0065 -0.3015 -0.0104
   11CHTO   H22 4600   3.549   4.694   1.681  0.1139 -0.9532 -2.0996
   11CHTO    N2 4601   3.467   4.552   1.793 -0.4621 -0.0095  0.6817
   11CHTO   H10 4602   3.441   4.639   1.852 -2.8505  0.1224 -0.5136
   11CHTO   H11 4603   3.479   4.470   1.863 -2.5598  1.5653  2.9795
   11CHTO    C7 4604   3.623   4.520   1.577  0.0128  0.4637  0.4842
   11CHTO   H20 4605   3.619   4.594   1.495 -0.7727  0.4166  0.4781
   11CHTO    O4 4606   3.761   4.479   1.571  0.2971 -0.3252 -0.1542
   11CHTO   C14 4607   3.854   4.591   1.581  0.0206 -0.1926 -0.0596
   11CHTO   H27 4608   3.831   4.654   1.492 -1.1243 -0.5533 -0.0222
   11CHTO   C18 4609   3.994   4.528   1.564  0.7334  0.0869 -0.6365
   11CHTO   O13 4610   4.015   4.460   1.442 -0.3926  0.1920  0.0736
   11CHTO    H7 4611   4.014   4.519   1.370 -1.1744 -0.1652 -0.2076
   11CHTO    O2 4612   3.525   4.388   1.537 -0.2425 -0.0537  0.5346
   11CHTO    C1 4613   3.477   4.394   1.402  0.3128 -0.2241  0.3503
   11CHTO   H14 4614   3.418   4.303   1.379  0.6529 -0.0321 -1.3035
   11CHTO    C2 4615   3.588   4.393   1.292 -0.5407 -0.7172 -0.3254
   11CHTO   H15 4616   3.651   4.479   1.320 -1.4589  0.6982 -2.4756
   11CHTO    O6 4617   3.655   4.273   1.290 -0.5729 -0.1413 -0.8836
   11CHTO    H1 4618   3.698   4.247   1.210  1.5944 -1.7214  0.7407
   11CHTO    C3 4619   3.518   4.431   1.146  0.5067  0.0658 -0.1328
   11CHTO   H16 4620   3.481   4.333   1.113  0.8298 -0.7341  1.7876
   11CHTO    N1 4621   3.621   4.470   1.045 -0.0684 -0.4282  0.0128
   11CHTO    H8 4622   3.598   4.565   0.998  1.5433 -0.8940 -1.7974
   11CHTO    H9 4623   3.625   4.400   0.963  1.0674 -1.1494  0.6658
   11CHTO    C4 4624   3.395   4.523   1.140 -0.2673  0.4100  0.3381
   11CHTO   H17 4625   3.423   4.626   1.159 -0.0493  0.3797  0.1829
   11CHTO    O1 4626   3.311   4.488   1.249 -0.0300 -0.1784 -0.1162
   11CHTO    C5 4627   3.373   4.512   1.379 -0.2558  0.3120 -0.2523
   11CHTO   H18 4628   3.424   4.608   1.381 -0.0991  0.3215 -2.7411
   11CHTO   C16 4629   3.257   4.514   1.483  0.7292 -0.1007  0.3050
   11CHTO   O11 4630   3.176   4.625   1.454 -0.6505 -0.0049  0.0890
   11CHTO    H5 4631   3.097   4.621   1.504 -0.6412  4.4555  0.6036
   11CHTO    O3 4632   3.321   4.511   1.015 -0.0255 -0.2311 -0.3717
   11CHTO    C6 4633   3.186   4.573   1.016 -0.3536  0.0508 -0.4604
   11CHTO   H19 4634   3.135   4.582   1.112 -1.4861  0.7661 -1.1209
   11CHTO    C8 4635   3.192   4.720   0.966  0.0918 -0.1061 -0.0249
   11CHTO   H21 4636   3.238   4.720   0.868 -1.8432  1.5496 -0.9746
   11CHTO    O7 4637   3.260   4.800   1.062  0.1682 -0.4637 -0.2398
   11CHTO    H2 4638   3.252   4.768   1.150  1.3877 -0.5981 -0.1678
   11CHTO   C12 4639   3.048   4.775   0.941  0.1394  0.7880 -0.1135
   11CHTO   H25 4640   2.993   4.776   1.038 -1.1266 -2.3284 -0.7547
   11CHTO    N3 4641   3.044   4.912   0.871 -0.0341 -0.0491 -0.0097
   11CHTO   H12 4642   2.940   4.925   0.847  0.1597 -0.5298 -1.1266
   11CHTO   H13 4643   3.096   4.990   0.926 -1.3351 -0.5744  2.0317
   11CHTO   C15 4644   2.965   4.675   0.850 -0.1171  0.6678 -0.8003
   11CHTO   H28 4645   3.002   4.686   0.748  0.3103 -1.0796 -0.8360
   11CHTO   O10 4646   2.809   4.694   0.854 -0.6079  0.3459  0.4979
   11CHTO    H4 4647   2.783   4.723   0.769 -1.0077 -1.3136  0.0230
   11CHTO    O5 4648   2.969   4.540   0.895  0.6299 -0.0611  0.2394
   11CHTO   C10 4649   3.100   4.487   0.919 -1.3373 -0.0896 -0.1295
   11CHTO   H23 4650   3.157   4.483   0.826  0.7922 -1.5108  1.1834
   11CHTO   C17 4651   3.089   4.351   0.980 -0.1663  0.6449  0.2559
   11CHTO   O12 4652   3.041   4.259   0.879 -0.3799  0.0643  0.3874
   11CHTO    H6 4653   2.948   4.249   0.881 -0.4445  0.5075 -0.2070
   12CHTO  H203 4654   5.350   1.368   2.171 -0.0466 -0.6441  0.5038
   12CHTO   O82 4655   5.423   1.348   2.227  0.3714 -0.2321  0.1037
   12CHTO  C123 4656   5.389   1.234   2.309 -0.1365 -0.3147  0.0982
   12CHTO  H227 4657   5.466   1.221   2.387  0.0838  1.0247  0.1204
   12CHTO   O77 4658   5.266   1.279   2.368  0.3680 -0.2775 -0.1660
   12CHTO  C118 4659   5.194   1.183   2.446  0.3060  0.6006  0.7697
   12CHTO  H222 4660   5.252   1.137   2.527  1.7370  0.3962 -0.3584
   12CHTO  C125 4661   5.078   1.259   2.504  0.1192 -0.0918 -0.0566
   12CHTO   O84 4662   4.990   1.325   2.410  0.1855  0.0393 -0.3902
   12CHTO  H205 4663   5.045   1.383   2.361  0.5487  1.0111  1.1267
   12CHTO  C114 4664   5.160   1.069   2.348 -0.0017  0.2408 -0.2454
   12CHTO  H218 4665   5.110   1.119   2.264 -0.5639  0.1236  0.0181
   12CHTO  C116 4666   5.288   0.993   2.290  0.0852  0.2254  0.8018
   12CHTO  H220 4667   5.348   0.947   2.372  3.3410 -0.6403 -1.9045
   12CHTO   O79 4668   5.253   0.889   2.199  0.0577 -0.0754  0.1241
   12CHTO  H201 4669   5.305   0.812   2.212  0.6706  0.5218  1.2377
   12CHTO  C120 4670   5.380   1.105   2.222 -0.3730  0.1829 -0.3928
   12CHTO  H224 4671   5.318   1.135   2.134 -2.5828  2.1734  1.7555
   12CHTO   N21 4672   5.513   1.049   2.178 -0.1029  0.4637 -0.2918
   12CHTO  H211 4673   5.525   0.954   2.227 -0.4749  0.0896 -0.9159
   12CHTO  H212 4674   5.527   1.048   2.071  2.3855 -1.3451  0.0018
   12CHTO   O75 4675   5.053   0.994   2.415  0.1523 -0.4025 -0.0848
   12CHTO  C112 4676   5.073   0.839   2.461  0.4562 -0.8211 -0.1011
   12CHTO  H216 4677   5.180   0.825   2.486  0.8987  0.1633 -1.4295
   12CHTO   O73 4678   5.032   0.756   2.352 -0.9577 -0.3784  0.2205
   12CHTO  C113 4679   5.037   0.617   2.377  0.2645  0.2098 -0.9415
   12CHTO  H217 4680   5.130   0.576   2.422  0.0960  1.9080  1.0371
   12CHTO  C124 4681   5.009   0.544   2.246  0.0680 -0.5099 -0.8183
   12CHTO   O83 4682   4.888   0.587   2.180  0.5782 -0.2747 -0.1451
   12CHTO  H204 4683   4.907   0.598   2.089 -1.6858  0.6953 -0.5197
   12CHTO  C109 4684   4.927   0.583   2.483  0.4442  0.9696  0.4063
   12CHTO  H213 4685   4.832   0.628   2.450  1.3984  2.9263  0.2521
   12CHTO  C110 4686   4.970   0.655   2.613  0.8167 -0.2661  0.3508
   12CHTO  H214 4687   5.067   0.615   2.645  0.7485 -0.1498  0.7090
   12CHTO   O78 4688   4.871   0.634   2.715 -0.0950  0.2353  0.5910
   12CHTO  H200 4689   4.891   0.547   2.744  2.0658  0.6523  0.4504
   12CHTO  C111 4690   4.987   0.809   2.589  0.4334 -0.6752  0.2281
   12CHTO  H215 4691   4.888   0.855   2.573  0.8200 -0.1386 -0.6358
   12CHTO   N19 4692   5.043   0.882   2.707  1.2300 -0.2188 -0.3623
   12CHTO  H207 4693   5.025   0.988   2.696 -1.0772 -0.0387  4.0813
   12CHTO  H208 4694   5.147   0.854   2.707  1.4748  0.6016  1.7659
   12CHTO   O74 4695   4.919   0.440   2.507  0.4002 -0.1050 -0.4423
   12CHTO  C115 4696   4.773   0.377   2.501 -0.4201 -0.0044  0.0264
   12CHTO  H219 4697   4.696   0.452   2.516 -0.7783 -0.5289  0.8351
   12CHTO   O76 4698   4.739   0.312   2.359  0.1937 -0.0334  0.0462
   12CHTO  C122 4699   4.840   0.220   2.328  0.0761 -0.3133  0.0982
   12CHTO  H226 4700   4.935   0.274   2.327 -0.2754  0.3400  1.4335
   12CHTO  C126 4701   4.808   0.177   2.179  0.4502 -0.4845  0.3457
   12CHTO   O85 4702   4.885   0.240   2.073  0.1806 -0.2647  0.2991
   12CHTO  H206 4703   4.843   0.223   1.991  1.6317  0.1899 -0.5549
   12CHTO  C121 4704   4.855   0.101   2.436  0.4024  0.3559 -0.3724
   12CHTO  H225 4705   4.825   0.011   2.379  0.2109  0.5669 -0.6071
   12CHTO   O81 4706   4.985   0.078   2.479 -0.6708  0.2281  0.0168
   12CHTO  H202 4707   5.011   0.147   2.538 -0.3237 -0.7713  1.0471
   12CHTO  C119 4708   4.750   0.121   2.557  0.3563 -0.2092  0.6264
   12CHTO  H223 4709   4.652   0.121   2.509 -0.0195  0.6403  1.3717
   12CHTO  C117 4710   4.760   0.272   2.622 -0.8871  0.2129  0.2578
   12CHTO  H221 4711   4.847   0.297   2.683 -1.3410 -0.1535  1.0631
   12CHTO   N20 4712   4.646   0.299   2.718  0.3163  0.3256 -0.0658
   12CHTO  H209 4713   4.622   0.404   2.722 -1.1239 -0.0046  0.1552
   12CHTO  H210 4714   4.664   0.242   2.808 -0.9506  0.4671  0.2819
   12CHTO   O80 4715   4.737   0.003   2.662  0.2529 -0.2912 -0.2598
   12CHTO  C103 4716   4.584  -0.044   2.710 -0.6064 -0.3040 -0.5404
   12CHTO  H190 4717   4.547   0.027   2.783  1.8552 -2.3748  2.8752
   12CHTO  C101 4718   4.485  -0.071   2.592 -0.7300  0.3053  0.4248
   12CHTO  H188 4719   4.552  -0.116   2.518 -0.0843 -0.3102  1.3726
   12CHTO   O68 4720   4.427   0.060   2.528 -0.2651  0.2327 -0.0944
   12CHTO  H168 4721   4.347   0.042   2.482 -0.7082  0.4649  0.5811
   12CHTO   C99 4722   4.369  -0.175   2.643 -0.3038  0.2560  0.4767
   12CHTO  H186 4723   4.294  -0.125   2.708 -0.5344  0.4310  0.0794
   12CHTO   N17 4724   4.286  -0.227   2.531  0.3279 -0.4942  0.1431
   12CHTO  H174 4725   4.209  -0.296   2.564  0.8420 -0.5259  1.2963
   12CHTO  H175 4726   4.339  -0.273   2.449 -1.1695 -3.6187  0.8320
   12CHTO   C97 4727   4.428  -0.293   2.726 -0.2301  0.1657 -0.1268
   12CHTO  H184 4728   4.494  -0.346   2.656 -0.1664  2.6739 -2.0212
   12CHTO   O64 4729   4.499  -0.239   2.831 -0.0740 -0.6263  0.5822
   12CHTO  C104 4730   4.619  -0.176   2.786  0.0837  0.0911  0.7462
   12CHTO  H191 4731   4.676  -0.244   2.723 -0.4206 -0.0122  0.4040
   12CHTO  C108 4732   4.715  -0.157   2.912 -0.2604 -0.1989 -0.5585
   12CHTO   O71 4733   4.650  -0.091   3.021 -1.0522  0.3920  0.2318
   12CHTO  H171 4734   4.557  -0.083   3.014 -1.2601 -1.8689  0.2768
   12CHTO   O62 4735   4.329  -0.370   2.789 -0.0013  0.4141 -0.3768
   12CHTO   C91 4736   4.356  -0.507   2.814 -0.3628  0.4232  0.2793
   12CHTO  H178 4737   4.399  -0.538   2.718 -0.0505  1.2676  0.1416
   12CHTO   C92 4738   4.226  -0.584   2.834 -0.7898 -0.7039 -0.2766
   12CHTO  H179 4739   4.156  -0.559   2.753  0.8235 -0.8481 -1.7286
   12CHTO   O66 4740   4.253  -0.719   2.813  0.1966  0.4193 -0.5557
   12CHTO  H166 4741   4.174  -0.764   2.789  0.7043 -0.1402 -1.1751
   12CHTO   C93 4742   4.174  -0.572   2.987  0.3668 -0.0968 -0.3507
   12CHTO  H180 4743   4.101  -0.651   3.007 -2.0698  1.8100 -1.4967
   12CHTO   N16 4744   4.101  -0.444   3.013 -0.6539 -0.3008  0.4232
   12CHTO  H172 4745   4.061  -0.455   3.113  0.3625 -0.1118  0.8543
   12CHTO  H173 4746   4.166  -0.357   3.013 -0.3039 -0.5540 -0.8992
   12CHTO   C94 4747   4.288  -0.590   3.092  0.2831 -0.1011  0.3581
   12CHTO  H181 4748   4.321  -0.495   3.133  1.6736 -0.5685  0.3576
   12CHTO   O61 4749   4.406  -0.639   3.035  0.1378  0.5497 -0.2701
   12CHTO   C95 4750   4.462  -0.549   2.935 -0.0644 -0.0793  0.0954
   12CHTO  H182 4751   4.491  -0.454   2.981  0.8143  0.2554 -1.1339
   12CHTO  C106 4752   4.599  -0.620   2.889 -0.0518  0.0091  0.2165
   12CHTO   O69 4753   4.668  -0.534   2.796 -0.3272 -0.1230  0.3929
   12CHTO  H169 4754   4.728  -0.580   2.741 -0.1925  1.3548 -0.7337
   12CHTO   O63 4755   4.239  -0.684   3.191 -0.3547 -0.2547 -0.4505
   12CHTO   C96 4756   4.325  -0.706   3.317  0.1414 -0.3969  0.3180
   12CHTO  H183 4757   4.397  -0.624   3.329  1.6010 -1.9999  3.0492
   12CHTO   C98 4758   4.411  -0.835   3.320  0.7085 -0.0095 -0.3125
   12CHTO  H185 4759   4.436  -0.875   3.221  1.2555 -0.6296  0.0757
   12CHTO   O67 4760   4.538  -0.808   3.383  0.4093 -0.1338 -0.0266
   12CHTO  H167 4761   4.527  -0.787   3.474 -0.2014  0.7616 -0.2994
   12CHTO  C102 4762   4.342  -0.954   3.401  0.7457 -0.1870 -0.3700
   12CHTO  H189 4763   4.422  -1.028   3.420  0.7172  0.1702  1.2186
   12CHTO   N18 4764   4.242  -1.028   3.321  0.2362  0.5431  0.3198
   12CHTO  H176 4765   4.267  -1.084   3.232  0.6948  0.2369  0.6409
   12CHTO  H177 4766   4.164  -1.079   3.376 -0.2496  1.2828  0.3234
   12CHTO  C105 4767   4.291  -0.904   3.542  0.6228  0.7954  0.2043
   12CHTO  H192 4768   4.192  -0.947   3.561  0.4932  1.6251  1.4611
   12CHTO   O65 4769   4.287  -0.769   3.557  0.2643 -0.1120  0.3726
   12CHTO  C100 4770   4.230  -0.697   3.444  0.6377  1.0414 -0.3587
   12CHTO  H187 4771   4.133  -0.746   3.431  1.1530  0.5007 -2.3552
   12CHTO  C107 4772   4.206  -0.549   3.493  0.2538  0.6121 -0.3181
   12CHTO   O70 4773   4.125  -0.464   3.410 -0.2001 -0.2659 -0.0276
   12CHTO  H170 4774   4.162  -0.379   3.397 -3.1732  1.6312  3.1263
   12CHTO   O57 4775   4.402  -0.976   3.638  0.3286 -0.4256 -0.0495
   12CHTO   C85 4776   4.406  -0.936   3.776  0.5638  0.3232  0.3687
   12CHTO  H157 4777   4.320  -0.866   3.781 -0.6962 -1.2481  1.4118
   12CHTO   C83 4778   4.531  -0.849   3.816 -0.0958  0.6135 -0.4019
   12CHTO  H155 4779   4.527  -0.760   3.753  0.4049  1.5727  0.8851
   12CHTO   O56 4780   4.654  -0.923   3.794 -0.0415 -0.3298 -0.0348
   12CHTO  H135 4781   4.640  -1.008   3.832 -0.2370  0.1526  1.0105
   12CHTO   C81 4782   4.507  -0.806   3.961 -0.4260 -0.4912  0.8427
   12CHTO  H153 4783   4.417  -0.746   3.964 -0.6953 -0.6933 -2.0233
   12CHTO   N14 4784   4.611  -0.712   4.013 -0.2328  0.2384 -0.6103
   12CHTO  H141 4785   4.706  -0.759   4.026  0.3320  1.7136  0.8126
   12CHTO  H142 4786   4.623  -0.622   3.956  0.0044  0.8105  0.3229
   12CHTO   C79 4787   4.490  -0.926   4.064 -0.3364 -0.2473 -0.2405
   12CHTO  H151 4788   4.453  -0.883   4.157 -1.9359  0.4086 -1.1578
   12CHTO   O52 4789   4.375  -1.010   4.026  0.2046  0.3115  0.1894
   12CHTO   C86 4790   4.389  -1.054   3.881 -0.2140  0.1792  0.0531
   12CHTO  H158 4791   4.480  -1.118   3.879 -0.7785 -0.6050 -0.6388
   12CHTO   C90 4792   4.278  -1.150   3.831  0.2614 -0.3369 -0.1564
   12CHTO   O60 4793   4.148  -1.094   3.802 -0.2406  0.3757 -0.1840
   12CHTO  H138 4794   4.134  -1.008   3.837 -0.2241  0.5767 -0.6656
   12CHTO   O50 4795   4.614  -0.988   4.085 -0.1324  0.1763 -0.0561
   12CHTO   C73 4796   4.642  -1.081   4.192 -0.3251  0.1524  0.4669
   12CHTO  H145 4797   4.552  -1.135   4.224 -0.0936 -0.2994  0.3635
   12CHTO   C74 4798   4.688  -1.001   4.313  0.4500 -0.1318  0.3873
   12CHTO  H146 4799   4.609  -0.927   4.331  1.2963  0.4832  1.6185
   12CHTO   O54 4800   4.698  -1.097   4.415  0.6949 -0.3848  0.3571
   12CHTO  H133 4801   4.731  -1.063   4.496  1.7139  1.5241 -0.8317
   12CHTO   C75 4802   4.829  -0.929   4.280  0.0532 -0.3151 -0.4198
   12CHTO  H147 4803   4.815  -0.872   4.186 -2.4979 -0.4361 -0.1272
   12CHTO   N13 4804   4.882  -0.846   4.398  0.1912 -0.5169 -0.0005
   12CHTO  H139 4805   4.974  -0.791   4.386 -0.4323  0.3728 -0.8666
   12CHTO  H140 4806   4.878  -0.895   4.494 -1.2338  1.6954  1.0985
   12CHTO   C76 4807   4.935  -1.047   4.243  0.0263 -0.3198 -0.1990
   12CHTO  H148 4808   4.941  -1.109   4.332 -1.1576  1.2277  0.9873
   12CHTO   O49 4809   4.886  -1.133   4.129  0.3217  0.1050 -0.7767
   12CHTO   C77 4810   4.754  -1.181   4.150  0.0019 -0.6303 -0.5185
   12CHTO  H149 4811   4.765  -1.254   4.230 -1.3598  0.1716  0.4251
   12CHTO   C88 4812   4.711  -1.262   4.029 -0.1518  0.1019  0.6632
   12CHTO   O58 4813   4.794  -1.389   4.016 -0.2638 -0.1968  0.3123
   12CHTO  H136 4814   4.771  -1.425   3.932 -0.3572  0.3480  0.0980
   12CHTO   O51 4815   5.090  -0.990   4.185  0.3008 -0.4171  0.0721
   12CHTO   C78 4816   5.207  -1.086   4.216  0.3332 -0.5931 -0.9385
   12CHTO  H150 4817   5.161  -1.182   4.246 -0.1000 -0.6527 -1.7636
   12CHTO   C80 4818   5.292  -1.037   4.338  0.2463  0.2611  0.2866
   12CHTO  H152 4819   5.333  -0.937   4.313  0.9825  0.3884  1.9491
   12CHTO   O55 4820   5.201  -1.014   4.440 -0.2366 -0.1080  0.0569
   12CHTO  H134 4821   5.139  -0.948   4.413  0.6874  0.9862  0.5669
   12CHTO   C84 4822   5.407  -1.148   4.355  0.4654 -0.1826 -0.2714
   12CHTO  H156 4823   5.370  -1.243   4.394  1.4593  0.0418  1.3013
   12CHTO   N15 4824   5.495  -1.106   4.465 -0.4992 -0.5519  0.1268
   12CHTO  H143 4825   5.448  -1.065   4.552  0.4625 -1.2102  0.9764
   12CHTO  H144 4826   5.576  -1.044   4.432 -0.2431  0.3568  2.3834
   12CHTO   C87 4827   5.485  -1.164   4.226 -0.2478 -0.2084 -0.0737
   12CHTO  H159 4828   5.539  -1.070   4.212  0.7078 -0.6886  0.3339
   12CHTO   O53 4829   5.400  -1.200   4.107 -0.4981 -0.6188  0.1083
   12CHTO   C82 4830   5.291  -1.116   4.088 -0.3707  0.3360 -0.4997
   12CHTO  H154 4831   5.323  -1.022   4.043  1.4611 -0.0117  0.0766
   12CHTO   C89 4832   5.213  -1.188   3.975 -0.7352  0.4800 -0.2901
   12CHTO   O59 4833   5.105  -1.111   3.919 -0.2560  0.1529  0.8467
   12CHTO  H137 4834   5.051  -1.168   3.867  0.0409 -0.5622  1.3158
   12CHTO   O45 4835   5.594  -1.285   4.253 -0.4391  0.5201  0.7376
   12CHTO   C67 4836   5.724  -1.256   4.198  0.0000 -0.1200 -0.0087
   12CHTO  H124 4837   5.778  -1.351   4.201  0.1414 -0.0980 -1.3317
   12CHTO   C65 4838   5.725  -1.210   4.044  0.0748  0.1937 -0.2329
   12CHTO  H122 4839   5.626  -1.176   4.015 -0.8654 -1.4937  0.9501
   12CHTO   O44 4840   5.750  -1.324   3.966 -0.3275  0.6403 -0.5211
   12CHTO  H102 4841   5.841  -1.343   3.955 -0.1743  0.3373  1.1086
   12CHTO   C63 4842   5.813  -1.082   4.021  0.4717 -0.2415 -0.6548
   12CHTO  H120 4843   5.764  -0.991   4.056  0.1303 -0.4673 -0.5543
   12CHTO   N11 4844   5.820  -1.041   3.880  0.0030  0.0189 -0.1466
   12CHTO  H108 4845   5.886  -0.957   3.872 -0.6694  0.5379 -0.3194
   12CHTO  H109 4846   5.870  -1.126   3.836  0.3673 -0.3233  0.9253
   12CHTO   C61 4847   5.952  -1.083   4.097 -0.3180 -0.7605 -0.3499
   12CHTO  H118 4848   6.001  -0.984   4.095  2.6703 -2.0871  2.0193
   12CHTO   O40 4849   5.946  -1.118   4.237 -0.3232  0.4147  0.3976
   12CHTO   C68 4850   5.815  -1.159   4.292  0.0326  0.1212  0.2929
   12CHTO  H125 4851   5.755  -1.068   4.315 -0.5982  0.2778 -1.7829
   12CHTO   C72 4852   5.860  -1.224   4.428 -0.1269  0.1888 -0.0177
   12CHTO   O48 4853   5.878  -1.128   4.534 -0.4163  0.0019 -0.4492
   12CHTO  H105 4854   5.817  -1.058   4.523 -0.2020  0.1745 -0.5506
   12CHTO   O38 4855   6.051  -1.176   4.052 -0.5728 -0.4580  0.0120
   12CHTO   C55 4856   6.119  -1.141   3.930  0.3965 -0.6040 -0.9923
   12CHTO  H112 4857   6.086  -1.050   3.878 -1.9887 -1.3161 -0.7980
   12CHTO   C56 4858   6.130  -1.268   3.829  0.3384 -0.2314 -0.8699
   12CHTO  H113 4859   6.204  -1.336   3.874  0.0994 -0.1029 -0.2785
   12CHTO   O42 4860   6.005  -1.332   3.817 -0.0402 -0.2756  0.4802
   12CHTO  H100 4861   6.005  -1.405   3.877  1.9945 -0.3279  0.4601
   12CHTO   C57 4862   6.189  -1.210   3.686 -0.0710  0.2499 -0.6583
   12CHTO  H114 4863   6.114  -1.146   3.639 -0.0162  3.3627  3.2283
   12CHTO   N10 4864   6.235  -1.322   3.598 -0.5068  0.9466  0.2218
   12CHTO  H106 4865   6.309  -1.285   3.528  0.9915 -0.5203  0.9839
   12CHTO  H107 4866   6.149  -1.356   3.543 -1.5289  0.4574  2.0858
   12CHTO   C58 4867   6.308  -1.113   3.720 -0.2131  0.5275 -0.4068
   12CHTO  H115 4868   6.400  -1.176   3.720 -0.2842  0.4232 -0.4907
   12CHTO   O37 4869   6.306  -1.045   3.843  0.1176  0.2194  0.5508
   12CHTO   C59 4870   6.266  -1.107   3.967  0.1637  0.4058 -0.1579
   12CHTO  H116 4871   6.336  -1.190   3.980  1.5573  1.3290 -1.4359
   12CHTO   C70 4872   6.282  -1.007   4.073  0.0907  0.2403  0.0128
   12CHTO   O46 4873   6.396  -0.926   4.064 -0.8442 -0.0427  0.2768
   12CHTO  H103 4874   6.401  -0.856   4.125  1.9831  1.2888 -1.3475
   12CHTO   O39 4875   6.306  -0.998   3.591 -0.4093 -0.0807 -0.2366
   12CHTO   C60 4876   6.420  -1.017   3.498  0.0921  0.1718  0.0729
   12CHTO  H117 4877   6.478  -1.104   3.532  0.4270 -0.1898 -1.3958
   12CHTO   C62 4878   6.380  -1.050   3.356  0.0136 -0.6012  0.4479
   12CHTO  H119 4879   6.318  -1.142   3.366  1.0218 -1.5846 -1.8744
   12CHTO   O43 4880   6.294  -0.951   3.302  0.1537 -0.3991  0.5319
   12CHTO  H101 4881   6.336  -0.867   3.309 -1.2590  0.1970  2.4908
   12CHTO   C66 4882   6.501  -1.088   3.259 -0.3983  0.3181  0.0388
   12CHTO  H123 4883   6.560  -1.162   3.313 -2.0386 -2.7115 -2.1636
   12CHTO   N12 4884   6.468  -1.148   3.126 -0.3086 -0.1515  0.4444
   12CHTO  H110 4885   6.387  -1.220   3.130 -0.9966  0.6311  0.8334
   12CHTO  H111 4886   6.441  -1.073   3.053  1.9319  0.2751  0.0161
   12CHTO   C69 4887   6.586  -0.957   3.246  0.2779 -0.1431  0.4572
   12CHTO  H126 4888   6.526  -0.880   3.194 -1.1162 -1.0726  0.6567
   12CHTO   O41 4889   6.635  -0.910   3.392  0.3417 -0.5252 -0.2187
   12CHTO   C64 4890   6.509  -0.895   3.503  0.0002  0.0854 -0.2914
   12CHTO  H121 4891   6.446  -0.806   3.483  2.4134  2.3546  1.7282
   12CHTO   C71 4892   6.574  -0.882   3.648 -0.6485 -0.1116  0.1540
   12CHTO   O47 4893   6.485  -0.845   3.751 -0.8551 -0.3496  0.0277
   12CHTO  H104 4894   6.531  -0.804   3.822 -2.1305 -0.0504  0.6893
   12CHTO   O34 4895   6.708  -0.970   3.144  0.3076  0.6766 -0.0624
   12CHTO   C49 4896   6.865  -1.006   3.176 -0.6638 -0.3242 -0.5876
   12CHTO   H91 4897   6.911  -0.911   3.203 -0.7773 -0.2673 -0.5911
   12CHTO   C47 4898   6.936  -1.032   3.042  0.3851 -0.0595  0.3930
   12CHTO   H89 4899   7.042  -1.032   3.075  0.5412  1.4499 -0.0997
   12CHTO   O33 4900   6.918  -0.921   2.948  0.1817 -0.2723 -0.1223
   12CHTO   H70 4901   6.963  -0.951   2.871  0.8192 -0.5570  0.3661
   12CHTO   C45 4902   6.897  -1.169   2.981  1.4640  0.9090  0.0985
   12CHTO   H87 4903   6.818  -1.157   2.905 -1.3862 -2.8752  2.2751
   12CHTO    N8 4904   7.014  -1.234   2.912  0.0315  0.0368 -0.0939
   12CHTO   H75 4905   7.105  -1.181   2.936 -0.5718  1.9117 -1.7805
   12CHTO   H76 4906   7.021  -1.339   2.935  1.2251  0.0683 -0.3218
   12CHTO   C43 4907   6.833  -1.275   3.090 -0.3932  0.7371 -0.6596
   12CHTO   H85 4908   6.731  -1.237   3.095 -0.4280  0.8469 -2.0188
   12CHTO   O29 4909   6.900  -1.264   3.218 -0.4171 -0.3050  0.2133
   12CHTO   C50 4910   6.879  -1.133   3.272 -0.0506  0.5397 -0.5550
   12CHTO   H92 4911   6.795  -1.135   3.343 -2.4372 -2.3861 -3.3217
   12CHTO   C54 4912   6.996  -1.110   3.366 -0.0602  0.3211 -0.1565
   12CHTO   O36 4913   6.994  -1.213   3.473 -0.2993 -0.0179 -0.2551
   12CHTO   H72 4914   6.999  -1.296   3.429 -2.2828  1.3200 -3.2253
   12CHTO   O27 4915   6.814  -1.409   3.039  0.0942 -0.1528 -0.4537
   12CHTO   C37 4916   6.741  -1.522   3.082  0.5460  0.1096  0.7029
   12CHTO   H79 4917   6.784  -1.607   3.027 -0.3347  0.8072 -1.0940
   12CHTO   C38 4918   6.759  -1.543   3.238  0.6525 -0.4993  0.1165
   12CHTO   H80 4919   6.731  -1.450   3.289  1.0954 -0.2402 -0.1005
   12CHTO   O31 4920   6.902  -1.572   3.263  0.3685  0.1658 -0.2471
   12CHTO   H68 4921   6.955  -1.539   3.193  2.0310 -2.8635 -0.4905
   12CHTO   C39 4922   6.674  -1.662   3.290  0.1097  0.0772  0.1291
   12CHTO   H81 4923   6.703  -1.752   3.236 -2.6325 -0.9220  0.2558
   12CHTO    N7 4924   6.688  -1.693   3.436  0.2816  0.5682 -0.3158
   12CHTO   H73 4925   6.736  -1.789   3.451  0.0396  0.5060  0.0878
   12CHTO   H74 4926   6.597  -1.688   3.495  0.9980 -2.1715  1.1563
   12CHTO   C40 4927   6.526  -1.632   3.252  0.5418  0.1983 -0.0930
   12CHTO   H82 4928   6.497  -1.539   3.300  0.0788  1.6870 -3.1524
   12CHTO   O26 4929   6.514  -1.624   3.110 -0.2957  0.6319 -0.7045
   12CHTO   C41 4930   6.590  -1.507   3.057 -0.1844  1.1127  0.2777
   12CHTO   H83 4931   6.556  -1.422   3.119 -0.3752 -2.0477  4.7132
   12CHTO   C52 4932   6.564  -1.489   2.907  0.3961  0.4189 -0.5308
   12CHTO   O35 4933   6.434  -1.503   2.875  0.1222 -0.1215 -0.4177
   12CHTO   H71 4934   6.424  -1.547   2.794 -2.1792  0.3594 -0.4122
   12CHTO   O28 4935   6.419  -1.721   3.295  0.1850  0.1812  0.0232
   12CHTO   C42 4936   6.309  -1.676   3.368  0.4727  0.1962  0.3383
   12CHTO   H84 4937   6.342  -1.586   3.420 -1.7766  1.5365 -0.5201
   12CHTO   C44 4938   6.277  -1.776   3.480 -0.2774  0.7460  0.0154
   12CHTO   H86 4939   6.240  -1.868   3.434 -1.0085  1.7855 -1.5528
   12CHTO   O32 4940   6.389  -1.802   3.563 -0.1880 -0.3238  0.0032
   12CHTO   H69 4941   6.440  -1.878   3.540 -1.5570 -1.1697 -0.2875
   12CHTO   C48 4942   6.152  -1.728   3.566 -0.4365 -0.0546 -0.3840
   12CHTO   H90 4943   6.177  -1.648   3.636  1.5641  0.1980 -1.3780
   12CHTO    N9 4944   6.092  -1.824   3.659 -0.1746  0.8068 -0.7541
   12CHTO   H77 4945   5.990  -1.849   3.633  0.1994  0.4798 -1.9633
   12CHTO   H78 4946   6.089  -1.782   3.758 -1.8151  0.5224 -0.6651
   12CHTO   C51 4947   6.041  -1.660   3.474  0.2144  0.5759  0.4051
   12CHTO   H93 4948   5.982  -1.740   3.429 -0.8509  1.2305  0.6098
   12CHTO   O30 4949   6.093  -1.573   3.378 -0.9524  0.0699 -0.1677
   12CHTO   C46 4950   6.190  -1.637   3.285 -0.3713  0.3026  0.5167
   12CHTO   H88 4951   6.139  -1.723   3.243  0.5055 -0.0583  0.1905
   12CHTO   C53 4952   6.224  -1.530   3.175 -0.1022  0.4126  0.4179
   12CHTO   O72 4953   6.120  -1.497   3.086  0.0835  0.1837  0.2164
   12CHTO  H199 4954   6.040  -1.476   3.131  0.9098 -0.0617  1.8255
   12CHTO   O22 4955   5.946  -1.585   3.552 -0.0300 -0.3731 -0.6728
   12CHTO   C31 4956   5.808  -1.574   3.521  0.2679 -0.9035 -0.2831
   12CHTO   H59 4957   5.795  -1.624   3.422  1.0854 -0.3066 -0.6960
   12CHTO   C29 4958   5.705  -1.639   3.619  0.3529 -0.4693 -0.8389
   12CHTO   H57 4959   5.723  -1.580   3.710  0.3784 -0.6753 -0.7123
   12CHTO   O21 4960   5.748  -1.775   3.656  0.0480  0.5461  0.3388
   12CHTO   H37 4961   5.839  -1.794   3.639  0.3224  0.8312  1.4319
   12CHTO   C27 4962   5.555  -1.623   3.568 -0.0910 -0.5034 -0.1398
   12CHTO   H55 4963   5.544  -1.682   3.476  0.4470  0.9122 -1.1238
   12CHTO    N5 4964   5.455  -1.668   3.667 -0.0496  0.0091 -0.4147
   12CHTO   H43 4965   5.474  -1.771   3.694  1.1055  0.8167  1.9826
   12CHTO   H44 4966   5.354  -1.651   3.632 -0.0225 -1.5156 -1.2838
   12CHTO   C25 4967   5.540  -1.476   3.537  0.2270  0.4707 -0.5698
   12CHTO   H53 4968   5.542  -1.411   3.626  2.2115 -0.4239  0.0544
   12CHTO   O17 4969   5.636  -1.424   3.446  0.3902  0.1273 -0.4513
   12CHTO   C32 4970   5.766  -1.431   3.497 -0.1107  0.0045 -0.2058
   12CHTO   H60 4971   5.763  -1.386   3.596  0.5677 -0.1819 -0.0908
   12CHTO   C36 4972   5.863  -1.341   3.409 -0.9530 -0.0256  0.5532
   12CHTO   O25 4973   5.884  -1.387   3.273 -0.2031 -0.6064  0.2027
   12CHTO   H40 4974   5.946  -1.457   3.268  1.8391  1.1963 -0.7198
   12CHTO   O15 4975   5.400  -1.443   3.482 -0.2382  0.5398  0.6882
   12CHTO   C19 4976   5.305  -1.333   3.449  0.8233 -0.1203 -1.0429
   12CHTO   H47 4977   5.345  -1.242   3.497  0.2330  0.5802 -1.8705
   12CHTO   C20 4978   5.293  -1.298   3.303 -0.0825  0.3414  0.0599
   12CHTO   H48 4979   5.274  -1.386   3.240 -2.6782  1.5817 -0.9513
   12CHTO   O19 4980   5.421  -1.247   3.272 -0.7923 -0.0831  0.0634
   12CHTO   H35 4981   5.497  -1.299   3.292  0.0331  1.0938  0.0090
   12CHTO   C21 4982   5.182  -1.194   3.281  0.6621 -0.5004 -0.2772
   12CHTO   H49 4983   5.213  -1.100   3.327 -2.9822  0.4022  0.4966
   12CHTO    N4 4984   5.164  -1.150   3.139  0.3326  0.0711  0.4454
   12CHTO   H41 4985   5.140  -1.227   3.066  0.5385  0.9555 -0.5655
   12CHTO   H42 4986   5.086  -1.075   3.138  0.6287  0.3741 -0.0450
   12CHTO   C22 4987   5.045  -1.238   3.341  0.2006  0.2485  0.1061
   12CHTO   H50 4988   5.006  -1.323   3.283  0.0658  0.6947 -0.4613
   12CHTO   O14 4989   5.067  -1.273   3.481 -0.2856 -0.2352  0.2201
   12CHTO   C23 4990   5.171  -1.364   3.515 -0.3495 -0.0211 -0.2099
   12CHTO   H51 4991   5.133  -1.464   3.491 -1.6739 -0.1908  2.4286
   12CHTO   C34 4992   5.177  -1.360   3.669  0.1022  0.5574 -0.4524
   12CHTO   O23 4993   5.053  -1.412   3.724 -0.1567  0.3118  0.6763
   12CHTO   H38 4994   5.024  -1.354   3.792  1.8024 -0.4891  2.2548
   12CHTO   O16 4995   4.959  -1.120   3.349 -0.2720 -0.1917 -0.3384
   12CHTO   C24 4996   4.803  -1.126   3.371  0.4987  0.5923 -0.2627
   12CHTO   H52 4997   4.759  -1.031   3.402 -2.6439 -1.1005  0.5564
   12CHTO   C26 4998   4.770  -1.226   3.483  0.1518 -0.5001  0.3225
   12CHTO   H54 4999   4.821  -1.323   3.470  2.6768  0.9150 -0.6479
   12CHTO   O20 5000   4.825  -1.185   3.604  0.0408 -0.2092  0.1968
   12CHTO   H36 5001   4.761  -1.174   3.672 -0.0957  2.0014 -0.2262
   12CHTO   C30 5002   4.616  -1.259   3.496 -0.1752 -0.3726  0.1748
   12CHTO   H58 5003   4.566  -1.167   3.530  0.6876 -0.0153  0.5062
   12CHTO    N6 5004   4.593  -1.358   3.598  0.4085 -0.5431 -0.0798
   12CHTO   H45 5005   4.539  -1.443   3.560 -0.8137  0.1170  0.1624
   12CHTO   H46 5006   4.688  -1.388   3.639 -0.2583  0.2739  2.1226
   12CHTO   C33 5007   4.575  -1.293   3.346 -0.4167  0.2204  0.1624
   12CHTO   H61 5008   4.636  -1.375   3.306 -0.3670  0.9039 -1.1702
   12CHTO   O18 5009   4.597  -1.180   3.258  0.5380 -0.3776  0.4494
   12CHTO   C28 5010   4.736  -1.163   3.236  0.6137 -0.3333  0.3722
   12CHTO   H56 5011   4.777  -1.260   3.208  0.8580 -0.3892  0.9284
   12CHTO   C35 5012   4.762  -1.054   3.131 -0.2687  0.1623 -0.2866
   12CHTO   O24 5013   4.733  -0.917   3.165  0.5118  0.2153 -0.2709
   12CHTO   H39 5014   4.650  -0.897   3.204 -0.6682 -2.9610 -1.0694
   12CHTO    O9 5015   4.438  -1.340   3.339 -0.0163 -0.2457  0.5010
   12CHTO   C13 5016   4.400  -1.434   3.211 -0.4421  0.8097 -0.2840
   12CHTO   H26 5017   4.480  -1.430   3.134 -0.4432  1.8708 -0.2332
   12CHTO   C11 5018   4.263  -1.369   3.159 -0.2528 -0.1140  0.2476
   12CHTO   H24 5019   4.282  -1.264   3.133 -1.4555 -0.1899 -0.9711
   12CHTO    O8 5020   4.179  -1.358   3.277  0.4656  0.1025 -0.1055
   12CHTO    H3 5021   4.090  -1.361   3.248  0.7392 -0.7885 -0.8563
   12CHTO    C9 5022   4.196  -1.451   3.045  0.2784  0.4891 -0.1718
   12CHTO   H22 5023   4.270  -1.449   2.964  0.9181  1.4566  0.4324
   12CHTO    N2 5024   4.078  -1.391   2.980  0.1292 -0.0424  0.0203
   12CHTO   H10 5025   4.112  -1.295   2.943  1.7616 -0.6190  0.0024
   12CHTO   H11 5026   4.007  -1.387   3.062  0.8769  0.3798  0.6609
   12CHTO    C7 5027   4.169  -1.600   3.093 -0.6459  0.3820  0.1018
   12CHTO   H20 5028   4.145  -1.655   3.000 -1.3653  1.5365 -0.4166
   12CHTO    O4 5029   4.293  -1.659   3.147  0.3276  0.8016  0.2950
   12CHTO   C14 5030   4.372  -1.589   3.248 -0.1867 -0.0176 -0.0786
   12CHTO   H27 5031   4.472  -1.639   3.247  0.5878  1.4932  0.1223
   12CHTO   C18 5032   4.315  -1.614   3.398  0.1737 -0.1188  0.3952
   12CHTO   O13 5033   4.399  -1.704   3.468 -0.3623 -1.2060  0.2170
   12CHTO    H7 5034   4.400  -1.787   3.425  0.2632 -0.9820 -0.2017
   12CHTO    O2 5035   4.043  -1.612   3.211 -0.0221  0.1035 -0.2042
   12CHTO    C1 5036   3.938  -1.706   3.181 -0.0334  0.6362  1.0848
   12CHTO   H14 5037   3.969  -1.777   3.102 -0.7647  0.2900  1.1019
   12CHTO    C2 5038   3.796  -1.636   3.144 -0.1752  0.1767 -0.1503
   12CHTO   H15 5039   3.788  -1.556   3.219  0.9188 -0.2211  0.4033
   12CHTO    O6 5040   3.808  -1.579   3.016 -0.2910 -0.2128 -0.4978
   12CHTO    H1 5041   3.766  -1.640   2.958 -1.7220 -2.1761  2.4335
   12CHTO    C3 5042   3.657  -1.732   3.152 -0.0330 -0.1318  0.3688
   12CHTO   H16 5043   3.659  -1.799   3.065 -1.3843 -0.5640  0.6734
   12CHTO    N1 5044   3.532  -1.651   3.141  0.3531  0.1362  0.0556
   12CHTO    H8 5045   3.519  -1.610   3.042  1.4291 -0.2003 -0.2235
   12CHTO    H9 5046   3.445  -1.698   3.185 -0.0017  0.0926 -0.6754
   12CHTO    C4 5047   3.670  -1.830   3.278 -0.1903 -0.4642  0.2093
   12CHTO   H17 5048   3.632  -1.773   3.362  1.1073  0.8115 -0.0384
   12CHTO    O1 5049   3.803  -1.881   3.289 -0.5451 -0.5915  0.0408
   12CHTO    C5 5050   3.916  -1.792   3.308  0.3394  0.0469 -0.2078
   12CHTO   H18 5051   3.912  -1.729   3.396 -2.8022  0.4314 -0.5618
   12CHTO   C16 5052   4.034  -1.890   3.330 -0.5088 -0.4331 -0.3497
   12CHTO   O11 5053   4.018  -1.979   3.448 -0.4334 -0.3054  0.8424
   12CHTO    H5 5054   4.091  -2.038   3.449 -0.0940  0.1205  1.3623
   12CHTO    O3 5055   3.588  -1.948   3.253 -0.8024 -0.2555  0.2555
   12CHTO    C6 5056   3.577  -2.039   3.371  0.0816  0.5505  0.3657
   12CHTO   H19 5057   3.662  -2.024   3.438 -1.1214 -0.2027  2.0965
   12CHTO    C8 5058   3.450  -2.008   3.456 -0.1130 -0.0145  0.4003
   12CHTO   H21 5059   3.364  -2.015   3.390 -0.9034 -0.0196  1.4051
   12CHTO    O7 5060   3.452  -1.875   3.514  0.0314 -0.2917  0.1146
   12CHTO    H2 5061   3.515  -1.870   3.583 -0.6271  0.9231  0.6369
   12CHTO   C12 5062   3.434  -2.126   3.561  0.5828 -0.3201  0.3187
   12CHTO   H25 5063   3.508  -2.119   3.643 -0.2056  1.4880  0.8737
   12CHTO    N3 5064   3.305  -2.110   3.646  0.5126  0.2500 -0.3846
   12CHTO   H12 5065   3.308  -2.180   3.729  2.3360  0.9149  0.1283
   12CHTO   H13 5066   3.292  -2.006   3.674 -0.7938  0.0593 -0.2430
   12CHTO   C15 5067   3.444  -2.267   3.492  0.1713  0.2003  0.1649
   12CHTO   H28 5068   3.367  -2.288   3.418  0.6577 -1.2736  0.0452
   12CHTO   O10 5069   3.432  -2.382   3.585 -0.1301  0.1986 -0.1285
   12CHTO    H4 5070   3.383  -2.451   3.545  1.8272 -1.5821  0.4566
   12CHTO    O5 5071   3.567  -2.286   3.422  0.1223  0.6333 -0.9155
   12CHTO   C10 5072   3.586  -2.189   3.317 -0.1700  0.5477 -0.0686
   12CHTO   H23 5073   3.512  -2.201   3.238  0.2354  2.4534 -0.7658
   12CHTO   C17 5074   3.714  -2.208   3.243  0.4393 -0.0241  0.1235
   12CHTO   O12 5075   3.707  -2.334   3.179  0.2752  0.4892  0.3194
   12CHTO    H6 5076   3.790  -2.352   3.140 -0.0800  1.5919 -0.9784
   13CHTO  H203 5077   7.458   4.701   2.597  1.2295 -1.1933 -0.0763
   13CHTO   O82 5078   7.409   4.634   2.552 -0.3713  0.2360 -0.5154
   13CHTO  C123 5079   7.286   4.692   2.501 -0.9609  0.1013  0.2649
   13CHTO  H227 5080   7.316   4.735   2.404 -0.8787  0.3899  0.4155
   13CHTO   O77 5081   7.201   4.576   2.481  0.4253  0.5559 -0.0626
   13CHTO  C118 5082   7.071   4.610   2.428 -0.3693  0.1031  0.3245
   13CHTO  H222 5083   7.074   4.662   2.331  1.2633  1.1243  0.9038
   13CHTO  C125 5084   6.990   4.478   2.417 -0.1381 -0.1919  0.4075
   13CHTO   O84 5085   7.040   4.399   2.311  0.6272  0.4250  0.1572
   13CHTO  H205 5086   7.076   4.318   2.341 -1.7729 -1.0311 -0.7752
   13CHTO  C114 5087   6.986   4.698   2.529 -0.0301  0.2691 -0.2171
   13CHTO  H218 5088   6.976   4.650   2.627 -1.3108  0.0761 -0.4376
   13CHTO  C116 5089   7.070   4.828   2.546 -0.2626 -0.4252 -0.0234
   13CHTO  H220 5090   7.083   4.887   2.453  1.8334 -1.4459 -0.3846
   13CHTO   O79 5091   7.003   4.907   2.649  0.1086  0.2277 -0.0890
   13CHTO  H201 5092   6.966   4.980   2.603  0.3544 -0.2528 -1.0650
   13CHTO  C120 5093   7.222   4.804   2.592 -0.6752 -0.2873 -0.1818
   13CHTO  H224 5094   7.217   4.766   2.696 -1.0049  0.4197  0.0570
   13CHTO   N21 5095   7.295   4.933   2.595  0.0919 -0.0765 -0.5459
   13CHTO  H211 5096   7.402   4.927   2.597  0.1255  0.6582  1.3050
   13CHTO  H212 5097   7.249   5.010   2.535 -0.3118  0.7238  0.7597
   13CHTO   O75 5098   6.857   4.727   2.468 -0.2848  0.3821 -0.4516
   13CHTO  C112 5099   6.734   4.655   2.533  0.3801 -0.4498  0.4442
   13CHTO  H216 5100   6.776   4.589   2.611  0.7433 -0.6418  0.0885
   13CHTO   O73 5101   6.672   4.585   2.425 -0.2252  0.2064  0.4116
   13CHTO  C113 5102   6.544   4.523   2.457  0.2593  0.8104 -0.0349
   13CHTO  H217 5103   6.557   4.442   2.532 -3.5824 -1.5698 -1.7988
   13CHTO  C124 5104   6.480   4.459   2.336 -0.3901 -0.5905 -0.0069
   13CHTO   O83 5105   6.563   4.398   2.247  0.1994  0.0718  0.4587
   13CHTO  H204 5106   6.512   4.350   2.185  0.5879  0.0349  0.1674
   13CHTO  C109 5107   6.443   4.623   2.522 -0.0626  0.1770 -0.1634
   13CHTO  H213 5108   6.413   4.694   2.444  0.2602  1.5108  0.9132
   13CHTO  C110 5109   6.504   4.698   2.641  0.8936  0.1734  0.1773
   13CHTO  H214 5110   6.516   4.627   2.723 -0.2875  0.4246  0.5700
   13CHTO   O78 5111   6.416   4.801   2.676  0.5750 -0.4758  0.1010
   13CHTO  H200 5112   6.325   4.782   2.668 -0.0503  2.5649 -0.7322
   13CHTO  C111 5113   6.638   4.762   2.597  0.0453 -0.8095 -0.1814
   13CHTO  H215 5114   6.621   4.838   2.519 -0.0986  0.9765  1.5532
   13CHTO   N19 5115   6.706   4.826   2.708 -0.0252 -0.5431  0.9227
   13CHTO  H207 5116   6.652   4.909   2.753 -1.6711 -1.2878  0.3725
   13CHTO  H208 5117   6.799   4.873   2.680 -0.8557 -0.9058 -2.6815
   13CHTO   O74 5118   6.327   4.542   2.576  0.6378 -0.4140  0.0986
   13CHTO  C115 5119   6.185   4.622   2.564  0.1532 -0.3314  0.4736
   13CHTO  H219 5120   6.176   4.691   2.648  0.3255  1.6279 -1.0673
   13CHTO   O76 5121   6.175   4.717   2.420  0.3357  0.4583  0.0228
   13CHTO  C122 5122   6.051   4.791   2.403 -0.4619 -0.3949  0.3587
   13CHTO  H226 5123   6.031   4.828   2.303 -0.5570 -1.0370  0.1397
   13CHTO  C126 5124   6.049   4.916   2.506 -0.5637  0.3637  0.2710
   13CHTO   O85 5125   6.025   4.891   2.648 -0.5668  0.4945  0.3854
   13CHTO  H206 5126   6.055   4.807   2.675  1.0652  0.9928  0.1548
   13CHTO  C121 5127   5.923   4.691   2.419  0.4972 -0.1883  1.6641
   13CHTO  H225 5128   5.840   4.764   2.425  0.3810 -0.2345  0.7270
   13CHTO   O81 5129   5.904   4.632   2.293 -0.1501 -0.7408  0.6016
   13CHTO  H202 5130   5.815   4.629   2.264 -1.6490 -1.1921  4.8020
   13CHTO  C119 5131   5.925   4.596   2.543  0.1634  0.0762  0.1355
   13CHTO  H223 5132   5.917   4.662   2.629 -0.0253  0.2741 -0.0346
   13CHTO  C117 5133   6.065   4.520   2.567 -0.0709  0.2195  0.0868
   13CHTO  H221 5134   6.078   4.435   2.500 -1.0190 -0.6714  1.0163
   13CHTO   N20 5135   6.066   4.454   2.703  0.3833  0.5015 -0.4040
   13CHTO  H209 5136   6.026   4.520   2.779 -1.1257 -0.7491 -0.0941
   13CHTO  H210 5137   5.992   4.376   2.699  1.4277 -0.6952  2.2272
   13CHTO   O80 5138   5.785   4.508   2.562 -0.0408  0.5236  0.3911
   13CHTO  C103 5139   5.670   4.565   2.661 -1.0446  0.1550  0.1589
   13CHTO  H190 5140   5.627   4.472   2.697 -0.1500 -0.4934 -0.4025
   13CHTO  C101 5141   5.715   4.659   2.782 -0.6408  0.1675 -0.1946
   13CHTO  H188 5142   5.760   4.753   2.751  0.1002  0.0215  0.4172
   13CHTO   O68 5143   5.822   4.570   2.866 -0.4213 -0.3291 -0.2241
   13CHTO  H168 5144   5.783   4.497   2.909  2.3460 -1.3024  0.7421
   13CHTO   C99 5145   5.585   4.715   2.867 -0.1563  0.3594  0.0170
   13CHTO  H186 5146   5.554   4.622   2.918  1.1455  0.1822  0.5049
   13CHTO   N17 5147   5.626   4.816   2.972 -0.7424  0.0247 -0.1514
   13CHTO  H174 5148   5.539   4.837   3.032 -2.0644  0.9642 -2.3439
   13CHTO  H175 5149   5.676   4.895   2.918 -0.0098 -0.9727 -0.9392
   13CHTO   C97 5150   5.473   4.755   2.763  0.4509  0.7308 -0.3920
   13CHTO  H184 5151   5.484   4.863   2.742  0.3732  1.0116  0.9654
   13CHTO   O64 5152   5.449   4.683   2.640 -0.1735 -0.1443  0.5376
   13CHTO  C104 5153   5.561   4.637   2.561 -0.3452  0.2181 -0.4806
   13CHTO  H191 5154   5.608   4.718   2.506 -1.7919  0.7453 -0.9742
   13CHTO  C108 5155   5.494   4.545   2.465 -0.8009  0.2505 -0.0393
   13CHTO   O71 5156   5.591   4.496   2.370 -0.0340  0.4397 -0.0215
   13CHTO  H171 5157   5.637   4.427   2.415 -4.1198 -1.1475  2.0675
   13CHTO   O62 5158   5.348   4.729   2.833  0.3463  0.1568  0.8985
   13CHTO   C91 5159   5.238   4.816   2.803  0.7567 -0.4835 -0.1305
   13CHTO  H178 5160   5.255   4.862   2.706 -1.5771  0.7857  0.0059
   13CHTO   C92 5161   5.225   4.924   2.908 -0.1297 -1.1272  0.4029
   13CHTO  H179 5162   5.220   4.877   3.007 -0.9898 -0.0835  0.8623
   13CHTO   O66 5163   5.346   5.001   2.907  0.2092 -0.4660  0.1378
   13CHTO  H166 5164   5.406   4.958   2.966  0.9383  1.4959  0.8851
   13CHTO   C93 5165   5.102   5.020   2.878 -0.1881 -0.4371  0.5147
   13CHTO  H180 5166   5.115   5.067   2.780 -2.0695 -1.4143 -0.2330
   13CHTO   N16 5167   5.081   5.137   2.970 -0.2868 -0.1271 -0.3732
   13CHTO  H172 5168   5.004   5.204   2.934 -0.9337 -1.0883 -0.7880
   13CHTO  H173 5169   5.058   5.087   3.063  0.3178 -1.3685 -0.8852
   13CHTO   C94 5170   4.966   4.931   2.868  0.2798 -0.1245  0.6239
   13CHTO  H181 5171   4.950   4.872   2.959  0.7567  0.1088  0.8620
   13CHTO   O61 5172   4.985   4.828   2.770 -0.1438  0.2171 -0.3400
   13CHTO   C95 5173   5.096   4.735   2.792  0.3547  0.1058  0.3045
   13CHTO  H182 5174   5.081   4.676   2.882  0.3291 -0.0047  0.2277
   13CHTO  C106 5175   5.087   4.627   2.681  0.6076 -0.2584 -0.7700
   13CHTO   O69 5176   4.966   4.554   2.686 -0.3492 -0.0055  0.5499
   13CHTO  H169 5177   4.958   4.484   2.623 -1.4384 -0.5535  1.2828
   13CHTO   O63 5178   4.837   5.008   2.846  0.0269 -0.1072 -0.2065
   13CHTO   C96 5179   4.695   4.932   2.874  0.8999 -0.2792 -0.2975
   13CHTO  H183 5180   4.681   4.931   2.982 -3.7265  1.6300 -0.7722
   13CHTO   C98 5181   4.690   4.786   2.824  0.4331  0.2250  0.0237
   13CHTO  H185 5182   4.741   4.780   2.727  1.6104  0.1817  0.6335
   13CHTO   O67 5183   4.765   4.699   2.913 -0.1871 -0.0704 -0.0821
   13CHTO  H167 5184   4.798   4.632   2.857 -0.3585 -0.6447  0.4924
   13CHTO  C102 5185   4.540   4.723   2.796  0.3049  0.4892  0.3807
   13CHTO  H189 5186   4.505   4.689   2.895  0.4679  0.1453  0.3216
   13CHTO   N18 5187   4.540   4.602   2.714 -0.0187 -0.0368  0.7946
   13CHTO  H176 5188   4.443   4.555   2.705  0.9627 -2.1481  1.1345
   13CHTO  H177 5189   4.625   4.538   2.735  0.5630 -0.3104 -2.1217
   13CHTO  C105 5190   4.448   4.834   2.736 -0.3795 -0.2366 -0.2030
   13CHTO  H192 5191   4.484   4.860   2.637  2.1924 -1.2719  0.4181
   13CHTO   O65 5192   4.448   4.948   2.822 -0.7468 -0.0392  0.0598
   13CHTO  C100 5193   4.569   5.020   2.811 -0.8155 -0.1491  0.3996
   13CHTO  H187 5194   4.583   5.041   2.704 -1.1125 -2.7084 -0.1745
   13CHTO  C107 5195   4.539   5.140   2.898  0.5365  0.0420 -0.4573
   13CHTO   O70 5196   4.652   5.234   2.906 -0.3608  0.6663  0.5618
   13CHTO  H170 5197   4.632   5.323   2.929 -2.3095  0.9676 -2.0228
   13CHTO   O57 5198   4.290   4.773   2.749 -0.0071 -0.0317  0.0393
   13CHTO   C85 5199   4.198   4.826   2.654 -0.2184 -0.4889 -0.2784
   13CHTO  H157 5200   4.257   4.845   2.561 -0.5713 -1.3697 -0.6848
   13CHTO   C83 5201   4.142   4.968   2.674 -0.4392  0.2938  0.4693
   13CHTO  H155 5202   4.227   5.036   2.679  0.1527 -0.3002 -1.1836
   13CHTO   O56 5203   4.093   4.971   2.805  0.4242  0.1465 -0.4935
   13CHTO  H135 5204   4.000   4.986   2.801  0.5253  1.2161  0.9158
   13CHTO   C81 5205   4.051   5.025   2.559 -0.4010  0.2813 -0.3138
   13CHTO  H153 5206   4.114   5.023   2.470  2.9750 -1.7386  2.0025
   13CHTO   N14 5207   4.022   5.169   2.583 -0.1820 -0.0899  1.0339
   13CHTO  H141 5208   4.107   5.230   2.561 -0.8780 -0.0517 -1.6585
   13CHTO  H142 5209   3.933   5.215   2.544  0.5226  1.0313  0.7434
   13CHTO   C79 5210   3.927   4.935   2.539 -0.1838 -0.4444 -0.2558
   13CHTO  H151 5211   3.869   4.972   2.455 -0.0531  1.4373  0.4453
   13CHTO   O52 5212   3.967   4.795   2.513 -0.1555  0.2771  0.1352
   13CHTO   C86 5213   4.059   4.744   2.621  0.5650 -0.4015  0.3508
   13CHTO  H158 5214   4.005   4.755   2.717  0.2342 -1.0346  0.2403
   13CHTO   C90 5215   4.076   4.586   2.606  0.1397  0.1305 -0.4468
   13CHTO   O60 5216   3.958   4.502   2.612 -0.0683 -0.2590 -0.2822
   13CHTO  H138 5217   3.926   4.497   2.701  0.5268 -3.3103 -0.2125
   13CHTO   O50 5218   3.833   4.949   2.644  0.7325 -0.5262  0.0567
   13CHTO   C73 5219   3.692   4.957   2.635 -0.3640  0.0582  0.3177
   13CHTO  H145 5220   3.647   4.900   2.553  1.7513 -2.5508  0.9288
   13CHTO   C74 5221   3.652   5.111   2.610  0.2364  0.0552  0.3338
   13CHTO  H146 5222   3.709   5.141   2.522  0.8511  0.6987  0.9392
   13CHTO   O54 5223   3.512   5.123   2.574  0.0082 -0.9334  0.2580
   13CHTO  H133 5224   3.455   5.063   2.619 -0.2967 -1.0584 -0.2880
   13CHTO   C75 5225   3.691   5.202   2.738 -0.8742  0.8188  0.0965
   13CHTO  H147 5226   3.796   5.180   2.760 -1.5312 -0.6267  1.9603
   13CHTO   N13 5227   3.678   5.350   2.708  0.0963  0.1367  0.2215
   13CHTO  H139 5228   3.724   5.394   2.795 -1.4277  0.0690  1.0918
   13CHTO  H140 5229   3.572   5.371   2.705 -0.0712 -0.9140 -1.8309
   13CHTO   C76 5230   3.608   5.148   2.862  0.0740 -0.0456  0.6248
   13CHTO  H148 5231   3.507   5.159   2.825 -0.1086  1.1791  1.4404
   13CHTO   O49 5232   3.650   5.011   2.877  0.3801 -0.2377 -0.3272
   13CHTO   C77 5233   3.618   4.924   2.768  0.3870 -0.7242 -0.2693
   13CHTO  H149 5234   3.513   4.925   2.741  0.2247 -0.6423  0.3527
   13CHTO   C88 5235   3.653   4.786   2.825 -0.3761  0.8908  0.3056
   13CHTO   O58 5236   3.621   4.698   2.741 -0.3495  0.4697  0.8418
   13CHTO  H136 5237   3.694   4.640   2.730  0.9213  2.3463 -1.1101
   13CHTO   O51 5238   3.622   5.251   3.001  0.1260 -0.0548  0.5564
   13CHTO   C78 5239   3.760   5.254   3.092 -0.7794 -0.5699  0.8822
   13CHTO  H150 5240   3.753   5.331   3.171 -2.6659 -1.9799  2.1580
   13CHTO   C80 5241   3.877   5.291   3.001 -0.4263 -0.6042 -0.1914
   13CHTO  H152 5242   3.885   5.215   2.920  0.9837 -0.9552  0.2550
   13CHTO   O55 5243   3.866   5.424   2.952 -0.5880  0.2425  0.4418
   13CHTO  H134 5244   3.872   5.485   3.023  1.0489  0.3255  0.2638
   13CHTO   C84 5245   4.019   5.277   3.073  0.4425 -1.0320 -0.0611
   13CHTO  H156 5246   4.042   5.358   3.142  0.2372 -1.0732  0.0565
   13CHTO   N15 5247   4.130   5.290   2.982 -0.5139  0.3343 -0.0722
   13CHTO  H143 5248   4.120   5.213   2.908 -0.9276 -0.3975  0.7310
   13CHTO  H144 5249   4.218   5.271   3.041 -0.5523 -1.9260 -0.6742
   13CHTO   C87 5250   4.037   5.153   3.158 -0.6621 -0.9832  0.9743
   13CHTO  H159 5251   4.072   5.065   3.103  0.9612 -0.6279  1.4085
   13CHTO   O53 5252   3.893   5.108   3.242  0.3243  0.0299  0.4566
   13CHTO   C82 5253   3.774   5.114   3.158  0.4781  0.2733 -0.7275
   13CHTO  H154 5254   3.764   5.038   3.079 -2.7267 -0.6850  0.4976
   13CHTO   C89 5255   3.659   5.086   3.257 -0.0831 -0.8809  0.6659
   13CHTO   O59 5256   3.637   5.193   3.352 -0.7083 -0.3905 -0.0666
   13CHTO  H137 5257   3.547   5.194   3.377  0.0341  2.4908  2.8177
   13CHTO   O45 5258   4.145   5.182   3.284  0.2997  0.0247  0.4684
   13CHTO   C67 5259   4.282   5.144   3.263  1.1244  0.8218 -0.4369
   13CHTO  H124 5260   4.303   5.114   3.161  0.0944 -0.9946 -0.1302
   13CHTO   C65 5261   4.372   5.273   3.289 -0.3630 -0.3220  0.7313
   13CHTO  H122 5262   4.318   5.355   3.243  1.1890 -0.1541 -0.8338
   13CHTO   O44 5263   4.498   5.262   3.214  0.4005  0.3045 -0.7925
   13CHTO  H102 5264   4.551   5.338   3.229  2.3419 -1.3696  1.1633
   13CHTO   C63 5265   4.387   5.306   3.444 -0.0578  0.3759 -0.8351
   13CHTO  H120 5266   4.291   5.337   3.486  0.2952  0.9420 -0.4400
   13CHTO   N11 5267   4.477   5.430   3.460 -0.1225 -0.0072 -0.1635
   13CHTO  H108 5268   4.575   5.432   3.501  0.2771  5.2363 -0.9825
   13CHTO  H109 5269   4.429   5.519   3.495 -0.4152  0.0773 -0.7683
   13CHTO   C61 5270   4.436   5.173   3.517 -0.2559 -0.2552 -0.0944
   13CHTO  H118 5271   4.429   5.195   3.625 -1.5312  0.9745 -0.4210
   13CHTO   O40 5272   4.339   5.062   3.492 -0.0635 -0.1767 -0.2978
   13CHTO   C68 5273   4.313   5.025   3.355 -0.2196 -0.6853  0.1698
   13CHTO  H125 5274   4.220   4.965   3.352  0.4537 -1.8658  1.7598
   13CHTO   C72 5275   4.435   4.936   3.299 -0.3411  0.3413 -0.5494
   13CHTO   O48 5276   4.404   4.892   3.164  0.2120  0.4774  0.0857
   13CHTO  H105 5277   4.356   4.812   3.174  2.3690 -0.8321  0.4436
   13CHTO   O38 5278   4.570   5.131   3.479 -0.2313 -0.8205 -0.0735
   13CHTO   C55 5279   4.676   5.082   3.566  0.0060 -0.0014  0.2050
   13CHTO  H112 5280   4.672   4.972   3.554  0.0916 -0.1782  1.6383
   13CHTO   C56 5281   4.679   5.119   3.717 -0.0186 -0.3540 -0.2299
   13CHTO  H113 5282   4.681   5.229   3.718  2.5255 -0.2860 -3.5533
   13CHTO   O42 5283   4.569   5.064   3.792 -0.1016 -0.3115 -0.7231
   13CHTO  H100 5284   4.513   5.124   3.837  0.3278  0.2722 -0.9613
   13CHTO   C57 5285   4.813   5.059   3.784 -0.7208  0.1864 -0.6006
   13CHTO  H114 5286   4.796   4.951   3.777 -2.4242  0.2226  2.0556
   13CHTO   N10 5287   4.830   5.094   3.926  0.1156 -0.2930 -0.0336
   13CHTO  H106 5288   4.773   5.024   3.985  1.3402 -0.4223  1.0312
   13CHTO  H107 5289   4.931   5.089   3.964  0.2912  0.9727 -0.3330
   13CHTO   C58 5290   4.943   5.105   3.702  0.4679  0.3595 -0.1045
   13CHTO  H115 5291   4.948   5.216   3.709 -1.5466  0.3659  1.6541
   13CHTO   O37 5292   4.922   5.063   3.572  0.3012  0.4432 -0.8450
   13CHTO   C59 5293   4.816   5.127   3.501 -0.3002  0.4366  0.3349
   13CHTO  H116 5294   4.832   5.235   3.504 -0.1171  0.3790  1.4349
   13CHTO   C70 5295   4.812   5.084   3.354  0.8343  0.4107 -0.0213
   13CHTO   O46 5296   4.891   5.162   3.277 -0.2354  0.0529 -0.4583
   13CHTO  H103 5297   4.981   5.146   3.298 -0.5754 -0.4236  0.6823
   13CHTO   O39 5298   5.080   5.041   3.768  0.3474 -0.0957  0.1137
   13CHTO   C60 5299   5.199   5.112   3.729 -0.0850  0.1786 -0.1954
   13CHTO  H117 5300   5.200   5.113   3.620 -0.7040  1.2157 -0.1939
   13CHTO   C62 5301   5.201   5.260   3.785 -0.2131 -0.2571 -0.1636
   13CHTO  H119 5302   5.114   5.321   3.751  0.4390  0.6269 -0.2591
   13CHTO   O43 5303   5.189   5.250   3.928 -0.3053 -0.2614 -0.8179
   13CHTO  H101 5304   5.114   5.200   3.953  0.2010  0.0373  1.4058
   13CHTO   C66 5305   5.333   5.330   3.730 -0.6679  0.4641  0.2040
   13CHTO  H123 5306   5.328   5.321   3.622  1.4429 -0.7116  0.1966
   13CHTO   N12 5307   5.337   5.478   3.763  0.2589 -0.2933 -0.5424
   13CHTO  H110 5308   5.406   5.495   3.845  0.0980  0.2765 -0.5255
   13CHTO  H111 5309   5.235   5.509   3.776  0.3275 -1.1362  2.4785
   13CHTO   C69 5310   5.460   5.243   3.762 -0.0383  0.6922  0.0989
   13CHTO  H126 5311   5.480   5.252   3.871 -2.1211 -0.6669  0.6055
   13CHTO   O41 5312   5.439   5.085   3.730  0.6104  0.0762  0.6116
   13CHTO   C64 5313   5.325   5.030   3.785  0.2785 -0.7611 -0.0124
   13CHTO  H121 5314   5.339   5.041   3.895  1.6321 -0.4530 -0.2071
   13CHTO   C71 5315   5.325   4.880   3.741  0.6579  0.7163 -0.4249
   13CHTO   O47 5316   5.440   4.819   3.798  0.5004  0.1948  0.2377
   13CHTO  H104 5317   5.436   4.765   3.874 -1.6118 -0.6812 -0.4506
   13CHTO   O34 5318   5.574   5.285   3.680 -0.0310  0.5158  0.1510
   13CHTO   C49 5319   5.688   5.366   3.615  0.5606 -0.2114  0.6191
   13CHTO   H91 5320   5.736   5.311   3.534  0.2756 -0.2607  0.4869
   13CHTO   C47 5321   5.791   5.397   3.724  0.3590  0.3241  0.2657
   13CHTO   H89 5322   5.882   5.438   3.675  0.0404  2.6518  1.5151
   13CHTO   O33 5323   5.830   5.271   3.788  0.0723  0.2346  0.3817
   13CHTO   H70 5324   5.908   5.246   3.743 -0.7208 -0.0792 -0.8315
   13CHTO   C45 5325   5.732   5.498   3.828 -0.3382 -1.4019 -0.4583
   13CHTO   H87 5326   5.640   5.449   3.865  0.0977  0.1101  2.8485
   13CHTO    N8 5327   5.821   5.541   3.945  0.6768  0.1614  0.3981
   13CHTO   H75 5328   5.780   5.572   4.040 -1.3646  0.3915 -0.5431
   13CHTO   H76 5329   5.907   5.479   3.964  1.4161  0.3383 -2.1317
   13CHTO   C43 5330   5.687   5.632   3.751 -0.3482  0.2381  0.3238
   13CHTO   H85 5331   5.640   5.698   3.823  1.8947  0.4260  1.6422
   13CHTO   O29 5332   5.605   5.609   3.637 -0.0980  0.7486  0.0580
   13CHTO   C50 5333   5.625   5.496   3.550 -0.1756  0.5879 -0.5910
   13CHTO   H92 5334   5.521   5.478   3.520 -0.4183 -1.6986  1.4745
   13CHTO   C54 5335   5.677   5.542   3.413 -1.0664  0.3550 -0.2585
   13CHTO   O36 5336   5.718   5.435   3.331  0.3614 -0.0454  0.3640
   13CHTO   H72 5337   5.807   5.414   3.351  0.1422 -0.9695  0.3687
   13CHTO   O27 5338   5.801   5.711   3.708  0.7232 -0.6378 -0.7354
   13CHTO   C37 5339   5.818   5.832   3.632  0.3778  0.2782 -0.5263
   13CHTO   H79 5340   5.772   5.817   3.533 -1.0593  0.7980  0.0518
   13CHTO   C38 5341   5.742   5.955   3.684  0.3652 -0.1408  0.2358
   13CHTO   H80 5342   5.785   5.983   3.782  0.3377  2.2478 -0.4148
   13CHTO   O31 5343   5.605   5.916   3.687  0.0703 -0.2161  0.6133
   13CHTO   H68 5344   5.558   5.988   3.726 -0.5111 -1.5584  2.4436
   13CHTO   C39 5345   5.756   6.072   3.585 -0.7301  0.1104  0.6046
   13CHTO   H81 5346   5.711   6.042   3.490 -0.5586  1.1575  0.1924
   13CHTO    N7 5347   5.679   6.192   3.632  0.4597 -0.5000  0.4126
   13CHTO   H73 5348   5.575   6.160   3.632 -0.5074  2.4442  1.2861
   13CHTO   H74 5349   5.691   6.292   3.591  0.2494 -0.4724  0.4168
   13CHTO   C40 5350   5.906   6.099   3.545 -0.1773  0.4469 -0.3966
   13CHTO   H82 5351   5.950   6.154   3.629 -1.4577  0.0918  0.5329
   13CHTO   O26 5352   5.977   5.974   3.520 -0.0291 -0.2746  0.4268
   13CHTO   C41 5353   5.966   5.866   3.615 -0.5456 -0.1959 -0.3197
   13CHTO   H83 5354   6.001   5.897   3.715 -0.2947 -0.5209 -0.3049
   13CHTO   C52 5355   6.038   5.741   3.559  0.3942  0.5053  0.3494
   13CHTO   O35 5356   6.176   5.761   3.521  0.0045  0.8066 -0.0107
   13CHTO   H71 5357   6.218   5.742   3.603 -0.2925 -2.0037 -0.4565
   13CHTO   O28 5358   5.921   6.156   3.419  0.1476 -0.3563  0.4669
   13CHTO   C42 5359   5.950   6.296   3.391 -0.3199  0.2430 -0.2301
   13CHTO   H84 5360   6.032   6.286   3.320 -0.9637  1.8324 -1.2152
   13CHTO   C44 5361   5.999   6.389   3.507 -0.1815  0.5425 -0.8939
   13CHTO   H86 5362   5.918   6.394   3.580 -1.2012 -1.1885 -1.8668
   13CHTO   O32 5363   6.104   6.320   3.578 -0.2459  0.6068 -0.4114
   13CHTO   H69 5364   6.187   6.345   3.543 -0.2538  2.2678  0.6700
   13CHTO   C48 5365   6.041   6.531   3.457 -1.1054 -1.0175  0.0330
   13CHTO   H90 5366   6.121   6.516   3.385 -1.9008 -2.6884 -0.5426
   13CHTO    N9 5367   6.079   6.614   3.569 -1.0655 -0.1673 -0.5074
   13CHTO   H77 5368   6.171   6.581   3.615  0.7196  0.3565 -3.4886
   13CHTO   H78 5369   6.092   6.719   3.548  0.2486 -0.4794 -1.3578
   13CHTO   C51 5370   5.920   6.591   3.386 -0.8685  0.0163  0.6195
   13CHTO   H93 5371   5.845   6.622   3.458 -1.3992 -0.2955  0.2119
   13CHTO   O30 5372   5.870   6.490   3.293  0.2480  0.3154 -0.3304
   13CHTO   C46 5373   5.830   6.367   3.322 -0.3092 -0.4453  0.0324
   13CHTO   H88 5374   5.747   6.372   3.392 -0.4018 -0.7952 -0.0482
   13CHTO   C53 5375   5.784   6.291   3.189  0.1857 -1.0561  0.0173
   13CHTO   O72 5376   5.676   6.372   3.140 -0.5069  0.2179  0.1002
   13CHTO  H199 5377   5.698   6.454   3.102 -1.9341  0.5703 -0.0132
   13CHTO   O22 5378   5.951   6.713   3.312 -0.4620 -0.2241 -0.3649
   13CHTO   C31 5379   5.847   6.788   3.239 -0.4965  0.2921 -0.0365
   13CHTO   H59 5380   5.897   6.884   3.213  2.3905 -1.1812 -0.1468
   13CHTO   C29 5381   5.795   6.722   3.107  0.0379 -0.5226  0.6631
   13CHTO   H57 5382   5.747   6.631   3.143 -1.3505 -0.9046 -1.9704
   13CHTO   O21 5383   5.910   6.672   3.029 -0.4724 -0.3097 -0.2820
   13CHTO   H37 5384   5.884   6.603   2.971 -0.5206  0.9824 -1.8114
   13CHTO   C27 5385   5.679   6.806   3.029  0.1425  0.2079 -0.0225
   13CHTO   H55 5386   5.721   6.898   2.985 -1.3944 -0.0780 -2.1747
   13CHTO    N5 5387   5.615   6.726   2.923  0.3125  0.4201 -0.1717
   13CHTO   H43 5388   5.605   6.622   2.948 -1.3452  0.7836  0.7205
   13CHTO   H44 5389   5.659   6.729   2.825  2.5693 -2.4741  0.6891
   13CHTO   C25 5390   5.577   6.851   3.135 -0.1511 -0.0383 -0.3984
   13CHTO   H53 5391   5.536   6.759   3.179  1.2674 -1.6527 -2.3732
   13CHTO   O17 5392   5.633   6.918   3.257 -0.3015 -0.1027 -0.0334
   13CHTO   C32 5393   5.724   6.834   3.327 -0.1346  0.3075  0.2197
   13CHTO   H60 5394   5.671   6.747   3.364 -1.2472 -0.2027 -2.4964
   13CHTO   C36 5395   5.775   6.918   3.452  0.2631  0.0275 -0.1653
   13CHTO   O25 5396   5.855   6.862   3.551 -0.1394  0.9516 -0.7884
   13CHTO   H40 5397   5.932   6.914   3.558  0.3736  0.0713  0.2361
   13CHTO   O15 5398   5.473   6.948   3.083  0.3053 -0.2247 -0.2351
   13CHTO   C19 5399   5.353   6.968   3.164 -0.7214 -0.1361 -0.1102
   13CHTO   H47 5400   5.368   6.921   3.263  1.8082  1.2433  0.2253
   13CHTO   C20 5401   5.331   7.118   3.196  0.8326 -0.4473  0.2377
   13CHTO   H48 5402   5.313   7.179   3.107 -0.7935  1.2883  1.7219
   13CHTO   O19 5403   5.456   7.168   3.250  0.0828 -0.0502  0.4756
   13CHTO   H35 5404   5.463   7.260   3.265  0.9426  0.3681 -2.2121
   13CHTO   C21 5405   5.209   7.143   3.301  0.8783 -0.8606  0.6656
   13CHTO   H49 5406   5.225   7.089   3.395  0.3539 -0.1988  1.1424
   13CHTO    N4 5407   5.178   7.286   3.331 -0.6532  0.4279  0.0966
   13CHTO   H41 5408   5.165   7.339   3.238  0.1662  0.0275 -0.2543
   13CHTO   H42 5409   5.251   7.336   3.393 -0.4828 -1.2647  1.2987
   13CHTO   C22 5410   5.085   7.062   3.244  0.2151  0.0515  0.3808
   13CHTO   H50 5411   5.051   7.108   3.151 -0.0569  0.7944  0.8447
   13CHTO   O14 5412   5.125   6.932   3.218  0.1818  0.4795  0.0490
   13CHTO   C23 5413   5.221   6.914   3.106  0.3560  0.4695  0.4324
   13CHTO   H51 5414   5.194   6.970   3.016  0.3284  1.1761  0.8751
   13CHTO   C34 5415   5.227   6.762   3.080 -0.2270  0.5767  0.2409
   13CHTO   O23 5416   5.105   6.723   3.021 -0.3278 -0.2534  0.0130
   13CHTO   H38 5417   5.042   6.711   3.089 -0.5096  0.0448 -0.1028
   13CHTO   O16 5418   4.974   7.032   3.337 -0.5978 -1.0289  0.4848
   13CHTO   C24 5419   4.830   7.008   3.263 -0.0637 -0.1961 -0.8638
   13CHTO   H52 5420   4.840   6.971   3.161 -2.5244  0.7757 -1.4880
   13CHTO   C26 5421   4.743   7.138   3.261  0.3023  1.1146  0.8680
   13CHTO   H54 5422   4.750   7.185   3.361 -2.4824 -2.6354  2.9486
   13CHTO   O20 5423   4.813   7.222   3.162  0.2534 -0.0164 -0.2864
   13CHTO   H36 5424   4.759   7.298   3.148  1.2957  1.0775  1.4015
   13CHTO   C30 5425   4.594   7.111   3.228  0.0279 -0.6673  0.5718
   13CHTO   H58 5426   4.590   7.100   3.119  2.1128 -0.2624  0.4370
   13CHTO    N6 5427   4.510   7.226   3.259 -0.1012 -0.6964 -0.0081
   13CHTO   H45 5428   4.407   7.225   3.227 -0.5669 -0.1107  1.4154
   13CHTO   H46 5429   4.516   7.258   3.362  0.4910 -0.0945 -0.2235
   13CHTO   C33 5430   4.544   6.983   3.299  0.3806 -0.0295 -0.1911
   13CHTO   H61 5431   4.528   7.012   3.403 -0.6428  1.2035 -0.6762
   13CHTO   O18 5432   4.640   6.876   3.298 -0.2452  0.4620  0.1255
   13CHTO   C28 5433   4.769   6.899   3.351  0.5254  0.3220  0.4592
   13CHTO   H56 5434   4.777   6.935   3.453  2.8307  1.7455 -0.1829
   13CHTO   C35 5435   4.849   6.764   3.349  0.4463  0.2406 -0.1490
   13CHTO   O24 5436   4.818   6.670   3.457  0.1887  0.1807 -0.1827
   13CHTO   H39 5437   4.760   6.601   3.429  0.7482 -0.5299  0.3783
   13CHTO    O9 5438   4.417   6.939   3.244  0.2137 -0.2251 -0.1177
   13CHTO   C13 5439   4.330   6.831   3.353 -0.0009  0.4302  0.0676
   13CHTO   H26 5440   4.335   6.878   3.453 -0.0289  0.7356 -0.0724
   13CHTO   C11 5441   4.393   6.687   3.351 -0.2984  0.0219  0.6001
   13CHTO   H24 5442   4.483   6.688   3.414 -0.5871 -3.0450  1.1615
   13CHTO    O8 5443   4.429   6.660   3.213 -0.7470 -0.1861 -0.1242
   13CHTO    H3 5444   4.361   6.621   3.160 -2.2213 -0.2710  1.7453
   13CHTO    C9 5445   4.297   6.574   3.406 -0.2752 -0.2869 -0.1391
   13CHTO   H22 5446   4.290   6.602   3.512  1.8689 -0.2225  0.0155
   13CHTO    N2 5447   4.362   6.438   3.406 -0.0929 -0.1810 -0.4342
   13CHTO   H10 5448   4.349   6.385   3.313 -1.6188 -1.0924  0.2770
   13CHTO   H11 5449   4.468   6.435   3.426 -0.0629  0.8157 -0.4110
   13CHTO    C7 5450   4.156   6.586   3.330 -0.1113 -0.3908 -0.4891
   13CHTO   H20 5451   4.081   6.600   3.410 -1.1506 -2.2514 -1.1082
   13CHTO    O4 5452   4.143   6.702   3.239  0.2464 -0.2853  0.6674
   13CHTO   C14 5453   4.171   6.826   3.305  0.4643 -0.2061  0.0135
   13CHTO   H27 5454   4.099   6.839   3.388  0.2188  2.2108 -0.5267
   13CHTO   C18 5455   4.144   6.946   3.211  0.0499 -0.2599  0.5177
   13CHTO   O13 5456   4.130   7.070   3.279 -0.0989  0.4065 -0.2098
   13CHTO    H7 5457   4.100   7.054   3.367 -0.7074 -2.7025 -0.9332
   13CHTO    O2 5458   4.113   6.450   3.253 -0.3758 -0.0269  0.4361
   13CHTO    C1 5459   3.974   6.445   3.209  0.7995  0.4944 -0.3726
   13CHTO   H14 5460   3.932   6.548   3.213  1.5448  0.7486  1.3022
   13CHTO    C2 5461   3.882   6.340   3.285 -0.1641  0.3885  0.0960
   13CHTO   H15 5462   3.931   6.242   3.287 -0.3244  0.3074  0.0607
   13CHTO    O6 5463   3.870   6.385   3.423 -0.0945  0.3738 -0.0143
   13CHTO    H1 5464   3.949   6.363   3.469 -0.0467  0.0894 -0.2325
   13CHTO    C3 5465   3.735   6.322   3.217  1.1079  0.5228  0.6473
   13CHTO   H16 5466   3.690   6.422   3.231  0.6188  0.0088  2.8405
   13CHTO    N1 5467   3.650   6.225   3.285  0.2525  0.1348 -0.0752
   13CHTO    H8 5468   3.546   6.205   3.262  0.2440 -0.5908  0.5913
   13CHTO    H9 5469   3.668   6.220   3.391  0.7333 -1.6548 -0.2168
   13CHTO    C4 5470   3.758   6.304   3.066  1.3285  0.4677 -0.0205
   13CHTO   H17 5471   3.791   6.202   3.048 -0.2304 -0.0936  0.2022
   13CHTO    O1 5472   3.837   6.405   3.014 -0.0946 -0.6640 -0.4660
   13CHTO    C5 5473   3.971   6.394   3.062 -0.3562 -0.4779 -0.5283
   13CHTO   H18 5474   4.000   6.289   3.059 -2.4048 -1.0613 -0.7942
   13CHTO   C16 5475   4.049   6.475   2.962  0.1027  0.2957  0.1381
   13CHTO   O11 5476   4.191   6.446   2.960  0.0713 -0.4206 -0.3552
   13CHTO    H5 5477   4.204   6.354   2.953 -0.7076 -0.7576  2.0621
   13CHTO    O3 5478   3.637   6.324   2.985 -0.0151  0.4458 -0.1295
   13CHTO    C6 5479   3.620   6.288   2.847 -0.4381 -0.3929 -0.4544
   13CHTO   H19 5480   3.625   6.379   2.787 -0.7160 -0.5104 -0.6558
   13CHTO    C8 5481   3.737   6.192   2.790  0.1741  0.0204 -0.3876
   13CHTO   H21 5482   3.740   6.106   2.858 -0.6497  1.1397  1.0939
   13CHTO    O7 5483   3.863   6.256   2.781  0.5359  0.1844  0.7186
   13CHTO    H2 5484   3.865   6.309   2.703 -6.5796 -0.2689 -0.1182
   13CHTO   C12 5485   3.691   6.125   2.654 -0.6133 -0.0938  0.5830
   13CHTO   H25 5486   3.720   6.199   2.576 -1.4417  0.2329  0.5759
   13CHTO    N3 5487   3.766   5.997   2.612 -0.4455 -0.5736  0.2480
   13CHTO   H12 5488   3.716   5.903   2.630 -0.6393 -0.6113 -0.4563
   13CHTO   H13 5489   3.781   5.998   2.505 -1.0971  0.2741  0.1568
   13CHTO   C15 5490   3.541   6.101   2.627 -0.4293  0.6063  0.0751
   13CHTO   H28 5491   3.502   6.011   2.675  4.4494 -1.3729  0.5952
   13CHTO   O10 5492   3.500   6.092   2.487  0.3338 -0.5307  0.0276
   13CHTO    H4 5493   3.564   6.045   2.438  0.4692  0.8658 -1.1855
   13CHTO    O5 5494   3.465   6.208   2.681 -0.3087 -0.1526 -0.8297
   13CHTO   C10 5495   3.484   6.225   2.825  0.3588  0.0943 -0.3364
   13CHTO   H23 5496   3.468   6.132   2.878 -0.3761 -0.1392 -0.9604
   13CHTO   C17 5497   3.371   6.324   2.874 -0.5755 -0.5671  0.2211
   13CHTO   O12 5498   3.242   6.285   2.826  0.2583 -0.1310  0.6925
   13CHTO    H6 5499   3.178   6.337   2.870 -1.1003 -1.8373  0.8051
   14CHTO  H203 5500   5.669   4.985   0.614  2.1222 -0.7789 -0.9407
   14CHTO   O82 5501   5.646   4.900   0.582 -0.2222 -0.3393 -0.4678
   14CHTO  C123 5502   5.529   4.857   0.655 -0.2326  0.0065  0.4932
   14CHTO  H227 5503   5.548   4.875   0.762  0.4551 -0.6075  0.4733
   14CHTO   O77 5504   5.417   4.938   0.606  0.1742  0.5128 -0.3669
   14CHTO  C118 5505   5.296   4.922   0.675 -0.5925 -0.1890 -0.8116
   14CHTO  H222 5506   5.337   4.946   0.774  1.0878 -0.2642 -1.4711
   14CHTO  C125 5507   5.206   5.029   0.616  1.1067  0.0441 -0.5122
   14CHTO   O84 5508   5.250   5.160   0.629 -0.3532  0.6477 -0.0117
   14CHTO  H205 5509   5.187   5.203   0.684 -0.4875 -0.2406  0.5396
   14CHTO  C114 5510   5.243   4.780   0.656  0.3542 -0.0671 -0.7112
   14CHTO  H218 5511   5.235   4.772   0.548  1.2298  0.9504 -0.8636
   14CHTO  C116 5512   5.347   4.671   0.703  0.2813 -0.5403  0.1670
   14CHTO  H220 5513   5.362   4.679   0.813 -0.3559 -1.7094  0.3465
   14CHTO   O79 5514   5.301   4.539   0.663  0.0786  0.3394 -0.4042
   14CHTO  H201 5515   5.330   4.488   0.737 -2.6100 -0.7446 -0.0549
   14CHTO  C120 5516   5.486   4.702   0.625 -0.2077  0.0496 -1.3023
   14CHTO  H224 5517   5.458   4.698   0.518  1.3113 -2.2914 -1.6344
   14CHTO   N21 5518   5.597   4.613   0.659  0.0030 -0.6503 -0.6850
   14CHTO  H211 5519   5.575   4.568   0.755 -0.5954 -1.9215 -1.4093
   14CHTO  H212 5520   5.604   4.549   0.572  0.4193 -0.6062 -0.6880
   14CHTO   O75 5521   5.120   4.780   0.722 -0.0168  0.0506 -0.0876
   14CHTO  C112 5522   5.008   4.653   0.684 -0.5278  0.5875  0.3729
   14CHTO  H216 5523   5.034   4.565   0.744  1.3607  0.6909 -0.2517
   14CHTO   O73 5524   5.012   4.626   0.543  0.0350  0.0048 -0.0959
   14CHTO  C113 5525   4.964   4.493   0.509  0.9995  0.3269 -0.8890
   14CHTO  H217 5526   4.997   4.416   0.582 -0.0838  0.8104  0.1367
   14CHTO  C124 5527   5.025   4.461   0.372 -0.4144  0.2494  0.6940
   14CHTO   O83 5528   5.017   4.327   0.328 -0.2694 -1.1331  0.5951
   14CHTO  H204 5529   4.985   4.267   0.392 -1.3463 -0.5720  0.6002
   14CHTO  C109 5530   4.812   4.521   0.521  0.8765  0.0670 -0.2164
   14CHTO  H213 5531   4.783   4.590   0.441  1.6990  0.5493 -0.1021
   14CHTO  C110 5532   4.769   4.578   0.660 -0.2557 -0.6630  0.4724
   14CHTO  H214 5533   4.761   4.494   0.729 -1.5913  0.4188  1.6634
   14CHTO   O78 5534   4.637   4.625   0.633  0.4511 -0.5384  0.5360
   14CHTO  H200 5535   4.576   4.609   0.703  0.7809  0.6063  1.1006
   14CHTO  C111 5536   4.862   4.689   0.709  0.1366 -0.4393  0.4700
   14CHTO  H215 5537   4.841   4.778   0.649 -2.9448 -1.4073  0.0520
   14CHTO   N19 5538   4.847   4.730   0.847  0.3789  0.2292  0.5589
   14CHTO  H207 5539   4.900   4.670   0.920  0.7363  1.5118  1.3567
   14CHTO  H208 5540   4.741   4.723   0.870  0.4355  0.0308  0.7609
   14CHTO   O74 5541   4.742   4.395   0.498 -0.1979 -0.0384 -1.0724
   14CHTO  C115 5542   4.673   4.373   0.354 -0.4643  0.4892  0.1065
   14CHTO  H219 5543   4.676   4.464   0.295  5.5143  0.0949 -0.5211
   14CHTO   O76 5544   4.746   4.282   0.274  0.7239  0.5929 -0.2980
   14CHTO  C122 5545   4.730   4.140   0.272 -0.4403 -0.1328  0.5702
   14CHTO  H226 5546   4.797   4.110   0.353 -1.3924 -0.6686  1.1725
   14CHTO  C126 5547   4.790   4.087   0.141 -0.0463  0.0796 -0.2555
   14CHTO   O85 5548   4.919   4.145   0.131  0.7007  0.0693  0.5348
   14CHTO  H206 5549   4.956   4.137   0.045  0.4951 -0.5612  0.5019
   14CHTO  C121 5550   4.586   4.098   0.299 -0.0410 -0.2644 -1.1059
   14CHTO  H225 5551   4.554   4.025   0.222  1.3312 -0.2494 -1.7037
   14CHTO   O81 5552   4.584   4.039   0.429  0.0550  0.6687 -0.2461
   14CHTO  H202 5553   4.637   3.962   0.439  0.6515  1.1169  0.0428
   14CHTO  C119 5554   4.482   4.217   0.292  0.2700  0.7523 -0.3904
   14CHTO  H223 5555   4.483   4.252   0.188 -1.4381  0.6207 -0.4649
   14CHTO  C117 5556   4.526   4.339   0.383 -0.0737 -0.1815  0.1464
   14CHTO  H221 5557   4.524   4.312   0.489  0.5342  1.1009  0.4888
   14CHTO   N20 5558   4.432   4.459   0.376 -0.6749 -0.7976  0.0237
   14CHTO  H209 5559   4.337   4.425   0.338 -1.3821 -0.3973  1.3922
   14CHTO  H210 5560   4.416   4.494   0.477 -0.2360 -0.3629 -0.0586
   14CHTO   O80 5561   4.343   4.183   0.305  0.3544  0.3011 -0.2691
   14CHTO  C103 5562   4.233   4.198   0.180 -0.4170 -0.1637 -0.0677
   14CHTO  H190 5563   4.246   4.298   0.137  0.3346 -0.1393  0.2041
   14CHTO  C101 5564   4.248   4.097   0.065 -0.0281 -1.0758 -0.2473
   14CHTO  H188 5565   4.223   3.996   0.097  1.4149 -2.0582 -2.1625
   14CHTO   O68 5566   4.390   4.092   0.003  0.4887  0.0020  0.1044
   14CHTO  H168 5567   4.381   4.051  -0.081 -0.2016 -3.1365  1.6342
   14CHTO   C99 5568   4.138   4.132  -0.052 -0.6935 -0.5254  0.4205
   14CHTO  H186 5569   4.154   4.233  -0.094  0.5844 -1.8956 -2.5201
   14CHTO   N17 5570   4.141   4.045  -0.176 -0.1748 -0.1548  0.5109
   14CHTO  H174 5571   4.230   4.071  -0.232 -0.1237  2.0008  1.5127
   14CHTO  H175 5572   4.056   4.069  -0.238 -0.5541 -0.9708  0.7195
   14CHTO   C97 5573   3.998   4.137   0.013 -0.5652 -0.4227  0.3681
   14CHTO  H184 5574   3.961   4.038   0.041 -0.8722 -0.4134 -0.0071
   14CHTO   O64 5575   4.002   4.227   0.125  0.2995  0.1873  0.2737
   14CHTO  C104 5576   4.091   4.191   0.236  0.6240  0.2146 -0.0123
   14CHTO  H191 5577   4.072   4.092   0.276 -2.1382  0.2157 -1.2279
   14CHTO  C108 5578   4.064   4.295   0.347 -0.4396  0.2553  0.2680
   14CHTO   O71 5579   3.926   4.279   0.391  0.6498 -0.1686 -0.4356
   14CHTO  H171 5580   3.869   4.321   0.330 -1.4716 -1.0543  0.8909
   14CHTO   O62 5581   3.893   4.199  -0.064 -0.8969  0.1707 -0.1008
   14CHTO   C91 5582   3.761   4.196  -0.022 -0.2004  0.3427  0.0186
   14CHTO  H178 5583   3.756   4.128   0.063 -0.1816 -1.1451 -1.1424
   14CHTO   C92 5584   3.692   4.123  -0.141 -0.4792 -0.0118  0.0726
   14CHTO  H179 5585   3.754   4.035  -0.163 -0.3772 -0.3716  1.7445
   14CHTO   O66 5586   3.576   4.063  -0.088 -0.3253 -0.1428  0.3910
   14CHTO  H166 5587   3.590   4.017  -0.008 -0.9751  0.4198  0.8324
   14CHTO   C93 5588   3.666   4.223  -0.258  0.4359 -0.9820 -0.0653
   14CHTO  H180 5589   3.573   4.192  -0.307  1.1675  0.6121 -2.5763
   14CHTO   N16 5590   3.761   4.214  -0.373  0.0500 -0.3139 -0.8005
   14CHTO  H172 5591   3.764   4.313  -0.415 -3.9350  0.0012 -0.4935
   14CHTO  H173 5592   3.858   4.185  -0.334 -0.9303 -1.9393  0.4934
   14CHTO   C94 5593   3.642   4.371  -0.205  0.2812 -0.3027  0.4526
   14CHTO  H181 5594   3.733   4.431  -0.211  1.9512 -2.9126 -2.0596
   14CHTO   O61 5595   3.594   4.373  -0.071 -0.5422 -0.2375  0.5676
   14CHTO   C95 5596   3.696   4.334   0.022  0.1984 -0.6221 -0.0727
   14CHTO  H182 5597   3.774   4.410   0.023  0.5902 -0.9823 -1.7227
   14CHTO  C106 5598   3.643   4.324   0.164 -0.0513 -0.2492  0.6580
   14CHTO   O69 5599   3.611   4.457   0.211 -0.1759  0.1191 -0.1919
   14CHTO  H169 5600   3.690   4.508   0.211  1.0051 -1.6747 -0.7985
   14CHTO   O63 5601   3.535   4.429  -0.292  0.6453  0.1537  0.2872
   14CHTO   C96 5602   3.530   4.578  -0.283 -0.1835 -0.3371  0.0230
   14CHTO  H183 5603   3.603   4.622  -0.215  0.9316  1.4692 -2.3002
   14CHTO   C98 5604   3.397   4.634  -0.230  0.8026 -0.3361  0.3868
   14CHTO  H185 5605   3.309   4.587  -0.276 -0.1826 -1.4269  3.2888
   14CHTO   O67 5606   3.389   4.597  -0.090 -0.5894 -0.2173 -0.6618
   14CHTO  H167 5607   3.315   4.541  -0.079 -1.8794  1.5107 -0.2672
   14CHTO  C102 5608   3.374   4.797  -0.248  0.2669 -0.0323 -0.2714
   14CHTO  H189 5609   3.445   4.848  -0.181  0.7686  1.5290 -1.9781
   14CHTO   N18 5610   3.236   4.848  -0.215 -0.4292  0.1182 -0.3384
   14CHTO  H176 5611   3.165   4.817  -0.290 -1.3572 -2.2663  1.4860
   14CHTO  H177 5612   3.196   4.822  -0.119 -3.2155  1.8655 -0.9567
   14CHTO  C105 5613   3.434   4.845  -0.382  0.2802 -0.6595 -0.4541
   14CHTO  H192 5614   3.368   4.816  -0.463  0.3728  0.1140 -0.8109
   14CHTO   O65 5615   3.562   4.789  -0.401  0.0301 -0.0792 -0.4285
   14CHTO  C100 5616   3.555   4.645  -0.420  0.6485  0.6053  0.5345
   14CHTO  H187 5617   3.471   4.633  -0.490  0.5701  1.6442  0.4473
   14CHTO  C107 5618   3.689   4.601  -0.478 -0.1261 -0.5256  0.1879
   14CHTO   O70 5619   3.804   4.614  -0.391 -0.2605 -0.0541 -0.0100
   14CHTO  H170 5620   3.861   4.541  -0.401 -1.1665 -0.2608 -5.4025
   14CHTO   O57 5621   3.434   4.985  -0.379  0.3372 -0.0816 -0.3839
   14CHTO   C85 5622   3.446   5.072  -0.494  0.4864  0.4973 -0.4241
   14CHTO  H157 5623   3.357   5.055  -0.557  1.6058  1.4966 -2.3270
   14CHTO   C83 5624   3.571   5.035  -0.577  0.3377  0.0398  0.1210
   14CHTO  H155 5625   3.557   4.935  -0.618 -0.7087  0.2551 -0.0576
   14CHTO   O56 5626   3.690   5.029  -0.495  0.4871  0.2403  0.1789
   14CHTO  H135 5627   3.767   5.048  -0.545  0.9850 -0.4720  0.6800
   14CHTO   C81 5628   3.579   5.131  -0.694 -0.0813  0.2609  0.1491
   14CHTO  H153 5629   3.483   5.129  -0.745 -0.0244  1.9406 -0.0279
   14CHTO   N14 5630   3.673   5.085  -0.801 -0.5804  0.0492  0.0383
   14CHTO  H141 5631   3.773   5.071  -0.768  0.1341  1.0764 -1.6143
   14CHTO  H142 5632   3.631   4.999  -0.848 -0.2840  0.7353 -1.5473
   14CHTO   C79 5633   3.602   5.274  -0.648  0.5612 -0.2156 -0.1233
   14CHTO  H151 5634   3.590   5.338  -0.735 -1.4362  0.1707  0.4091
   14CHTO   O52 5635   3.493   5.315  -0.559  0.5287  0.0107 -0.6105
   14CHTO   C86 5636   3.453   5.227  -0.452 -0.0496  0.3600 -0.1481
   14CHTO  H158 5637   3.530   5.252  -0.376  0.1482 -0.4579 -0.0758
   14CHTO   C90 5638   3.320   5.267  -0.393 -0.5413 -0.0929  0.4130
   14CHTO   O60 5639   3.335   5.402  -0.342 -0.1501 -0.7566 -0.1001
   14CHTO  H138 5640   3.418   5.412  -0.301  0.2583  0.1514 -1.1437
   14CHTO   O50 5641   3.728   5.308  -0.586  0.0743 -0.9206 -0.0636
   14CHTO   C73 5642   3.808   5.316  -0.469  1.1281 -0.0167  0.0383
   14CHTO  H145 5643   3.780   5.240  -0.395  2.2145 -0.1387  0.3284
   14CHTO   C74 5644   3.794   5.456  -0.409  0.0017 -0.0214 -0.6184
   14CHTO  H146 5645   3.688   5.478  -0.390  0.4465  1.3027  0.3460
   14CHTO   O54 5646   3.849   5.452  -0.277  0.4364  0.1608 -0.5634
   14CHTO  H133 5647   3.846   5.363  -0.245  0.2775  0.1390 -0.6363
   14CHTO   C75 5648   3.861   5.563  -0.508  0.5250  0.1693 -0.3937
   14CHTO  H147 5649   3.817   5.554  -0.609  1.7579 -1.2669 -0.8193
   14CHTO   N13 5650   3.841   5.701  -0.450  0.6871 -0.0916  0.9569
   14CHTO  H139 5651   3.740   5.739  -0.457  1.0333  0.7217  0.1687
   14CHTO  H140 5652   3.881   5.700  -0.350  0.4428 -0.8480  1.0469
   14CHTO   C76 5653   4.008   5.514  -0.524 -0.4863 -0.4482 -0.2477
   14CHTO  H148 5654   4.050   5.512  -0.423 -0.8332  1.3980 -0.0495
   14CHTO   O49 5655   4.004   5.389  -0.600  0.3052  0.3413  0.4880
   14CHTO   C77 5656   3.953   5.293  -0.510 -0.2556  0.8131  0.0605
   14CHTO  H149 5657   4.014   5.293  -0.420  2.7137 -0.0887 -1.8786
   14CHTO   C88 5658   3.980   5.154  -0.572  0.1387  0.4854  0.3262
   14CHTO   O58 5659   4.131   5.127  -0.571 -0.1300  0.1102 -0.2047
   14CHTO  H136 5660   4.150   5.075  -0.496  1.9050 -0.7262 -1.2622
   14CHTO   O51 5661   4.104   5.606  -0.616 -0.1382 -0.0527  0.0658
   14CHTO   C78 5662   4.229   5.680  -0.515  0.2143 -0.2610 -0.3730
   14CHTO  H150 5663   4.205   5.679  -0.407  2.9183  1.5156  0.2637
   14CHTO   C80 5664   4.240   5.823  -0.564 -0.0204 -0.3053 -0.4592
   14CHTO  H152 5665   4.237   5.830  -0.674  1.7808  4.0527 -0.3640
   14CHTO   O55 5666   4.113   5.875  -0.521  0.1814 -0.6055  0.4347
   14CHTO  H134 5667   4.033   5.838  -0.554  0.1343 -2.2534  2.2745
   14CHTO   C84 5668   4.361   5.895  -0.500  0.0966  0.1629  0.8250
   14CHTO  H156 5669   4.327   5.897  -0.396 -0.2204 -1.6753  0.7687
   14CHTO   N15 5670   4.366   6.038  -0.538  0.0156 -0.0133  0.8968
   14CHTO  H143 5671   4.456   6.087  -0.506  0.2775 -0.7009  1.2234
   14CHTO  H144 5672   4.357   6.050  -0.643 -0.6810  0.1560  0.9762
   14CHTO   C87 5673   4.486   5.814  -0.541  0.1669 -0.1920 -0.2033
   14CHTO  H159 5674   4.505   5.818  -0.648 -4.5273 -1.3975 -1.1777
   14CHTO   O53 5675   4.465   5.666  -0.485  0.0250 -0.0064  0.4469
   14CHTO   C82 5676   4.361   5.603  -0.545  0.4726  0.2659 -0.1891
   14CHTO  H154 5677   4.363   5.594  -0.654  2.9782  1.0376 -0.2315
   14CHTO   C89 5678   4.356   5.454  -0.494  0.3883  0.2628 -0.2306
   14CHTO   O59 5679   4.475   5.378  -0.543 -0.4525 -0.4924 -0.3807
   14CHTO  H137 5680   4.556   5.416  -0.516 -1.0631  0.4269  0.1743
   14CHTO   O45 5681   4.642   5.873  -0.459 -0.6719 -0.2027  0.0926
   14CHTO   C67 5682   4.775   5.827  -0.500 -0.0064  0.0309 -0.2398
   14CHTO  H124 5683   4.847   5.890  -0.448 -1.6004  2.1919 -0.5873
   14CHTO   C65 5684   4.799   5.674  -0.462  0.0553 -0.1487  1.0003
   14CHTO  H122 5685   4.706   5.640  -0.417  0.6540 -3.8671 -0.3708
   14CHTO   O44 5686   4.897   5.680  -0.364  0.1838 -0.3665  0.6285
   14CHTO  H102 5687   4.975   5.723  -0.393 -2.4374  3.0923 -1.6885
   14CHTO   C63 5688   4.818   5.582  -0.593 -0.2923 -0.2551 -0.3801
   14CHTO  H120 5689   4.722   5.585  -0.644 -1.9102 -0.7697  2.5263
   14CHTO   N11 5690   4.836   5.433  -0.575  0.4302 -0.3417  0.1941
   14CHTO  H108 5691   4.938   5.416  -0.602  0.5517  0.3726  0.1693
   14CHTO  H109 5692   4.776   5.382  -0.648  0.9968 -1.4600  0.5025
   14CHTO   C61 5693   4.934   5.651  -0.680  0.2494  0.9744 -0.2128
   14CHTO  H118 5694   4.935   5.599  -0.777 -1.2139  0.0226  0.2766
   14CHTO   O40 5695   4.915   5.796  -0.713  0.1935  0.6955  0.2693
   14CHTO   C68 5696   4.799   5.861  -0.654 -0.0810 -0.5804  0.1294
   14CHTO  H125 5697   4.707   5.844  -0.714 -0.8693 -0.3197  1.2465
   14CHTO   C72 5698   4.834   6.013  -0.671  0.5247 -0.0213 -0.3202
   14CHTO   O48 5699   4.717   6.098  -0.655 -0.3579 -0.0399  0.7239
   14CHTO  H105 5700   4.739   6.177  -0.610  0.9899  1.6857 -2.8340
   14CHTO   O38 5701   5.064   5.643  -0.613  0.2068  0.1676 -0.3871
   14CHTO   C55 5702   5.177   5.667  -0.702 -0.6086 -0.2650  0.2736
   14CHTO  H112 5703   5.155   5.715  -0.799 -0.7044  0.7483  0.7899
   14CHTO   C56 5704   5.266   5.536  -0.720  0.1470  0.1567 -0.1460
   14CHTO  H113 5705   5.299   5.507  -0.619  2.1824 -0.5015 -0.9705
   14CHTO   O42 5706   5.182   5.426  -0.760  0.3027  0.3412 -0.1446
   14CHTO  H100 5707   5.109   5.458  -0.809 -0.7219 -0.2297  0.9869
   14CHTO   C57 5708   5.390   5.567  -0.817  1.1386 -0.5203 -0.6982
   14CHTO  H114 5709   5.346   5.596  -0.913 -0.5356  0.6197  0.3894
   14CHTO   N10 5710   5.476   5.447  -0.841 -0.2113  0.4584 -0.0936
   14CHTO  H106 5711   5.429   5.350  -0.836  0.1482  0.2657 -0.3651
   14CHTO  H107 5712   5.564   5.448  -0.777  0.1926  0.0110 -0.6383
   14CHTO   C58 5713   5.467   5.687  -0.760  0.2034  0.7378  0.6296
   14CHTO  H115 5714   5.527   5.648  -0.676  1.6839 -0.8317 -1.1200
   14CHTO   O37 5715   5.384   5.798  -0.725  0.2977  0.2297  0.7359
   14CHTO   C59 5716   5.275   5.769  -0.634 -0.6022  0.3127  0.3884
   14CHTO  H116 5717   5.307   5.721  -0.542 -1.4503  2.1505  1.6743
   14CHTO   C70 5718   5.211   5.906  -0.601 -0.1027  0.4611  0.2543
   14CHTO   O46 5719   5.170   5.969  -0.723  0.2983 -0.2289 -0.6058
   14CHTO  H103 5720   5.126   6.050  -0.706  1.4786  0.0359  1.3102
   14CHTO   O39 5721   5.564   5.737  -0.895 -0.6039 -0.2067 -0.1409
   14CHTO   C60 5722   5.703   5.726  -0.873 -0.9143  0.1799 -0.0395
   14CHTO  H117 5723   5.713   5.682  -0.774  0.6793 -0.2740 -0.3820
   14CHTO   C62 5724   5.778   5.644  -0.979 -0.2192 -0.6393 -0.4157
   14CHTO  H119 5725   5.739   5.540  -0.987 -1.2392 -0.3510  0.6069
   14CHTO   O43 5726   5.753   5.708  -1.105 -0.2611  0.3102  0.2045
   14CHTO  H101 5727   5.791   5.794  -1.107  1.5495 -0.3979  2.0233
   14CHTO   C66 5728   5.944   5.643  -0.946 -0.7304 -0.7173  0.2809
   14CHTO  H123 5729   5.955   5.594  -0.850 -1.9555 -1.2610  0.1593
   14CHTO   N12 5730   6.033   5.566  -1.039 -0.0410 -0.4373  0.2192
   14CHTO  H110 5731   6.001   5.464  -1.050 -0.9340  0.1129 -2.6930
   14CHTO  H111 5732   6.132   5.572  -0.995  0.1084  1.6174 -0.3278
   14CHTO   C69 5733   5.994   5.792  -0.939 -0.0169  0.7608  0.2447
   14CHTO  H126 5734   5.993   5.838  -1.040 -3.0202  2.7022  1.1017
   14CHTO   O41 5735   5.891   5.885  -0.831 -1.4448 -0.1062  0.5902
   14CHTO   C64 5736   5.761   5.880  -0.861 -0.4050  0.2102 -0.4087
   14CHTO  H121 5737   5.741   5.929  -0.958  0.6129  2.0142  0.2640
   14CHTO   C71 5738   5.688   5.963  -0.750  0.4539 -0.0338  0.8034
   14CHTO   O47 5739   5.731   6.100  -0.739 -0.2882 -0.4033 -0.0932
   14CHTO  H104 5740   5.678   6.150  -0.679  0.4856 -0.9724  1.0754
   14CHTO   O34 5741   6.130   5.803  -0.873  0.4242 -0.4218  0.8589
   14CHTO   C49 5742   6.233   5.804  -0.760  0.3263  0.5246 -0.2679
   14CHTO   H91 5743   6.316   5.866  -0.795 -0.6153  1.1858 -1.3651
   14CHTO   C47 5744   6.277   5.663  -0.734 -0.3726  0.1527 -0.4965
   14CHTO   H89 5745   6.367   5.679  -0.671 -0.8049  2.2311 -0.3657
   14CHTO   O33 5746   6.321   5.595  -0.853  0.1609  0.2378  0.5366
   14CHTO   H70 5747   6.252   5.564  -0.909  1.1384 -1.9125  0.4805
   14CHTO   C45 5748   6.171   5.569  -0.654  0.3755  0.3582  0.6070
   14CHTO   H87 5749   6.116   5.508  -0.727  1.3647  1.7226 -1.3074
   14CHTO    N8 5750   6.246   5.474  -0.568 -0.1921  0.0915 -0.1303
   14CHTO   H75 5751   6.228   5.487  -0.462  1.3675 -1.3081  0.3320
   14CHTO   H76 5752   6.247   5.371  -0.599  0.9305  0.0649 -0.0317
   14CHTO   C43 5753   6.064   5.660  -0.581 -0.3843  0.1921  0.3346
   14CHTO   H85 5754   6.002   5.688  -0.667  0.0902 -0.0207 -0.0835
   14CHTO   O29 5755   6.124   5.775  -0.523 -0.7164 -0.8863  0.4673
   14CHTO   C50 5756   6.174   5.868  -0.625  0.4031  1.1641  0.7113
   14CHTO   H92 5757   6.090   5.935  -0.651  1.2783  1.4112 -1.5579
   14CHTO   C54 5758   6.273   5.970  -0.558  0.1541 -0.0727 -0.6952
   14CHTO   O36 5759   6.325   6.063  -0.657  0.3758 -0.2824 -0.3438
   14CHTO   H72 5760   6.404   6.027  -0.694 -1.7081 -2.8893 -2.4489
   14CHTO   O27 5761   5.972   5.590  -0.498  0.2403  1.0527  0.4360
   14CHTO   C37 5762   5.874   5.634  -0.405 -0.0662  0.2685  0.2162
   14CHTO   H79 5763   5.927   5.673  -0.317 -0.8381  1.3409  0.2059
   14CHTO   C38 5764   5.788   5.757  -0.455  0.3019  0.2412  0.2303
   14CHTO   H80 5765   5.750   5.728  -0.554 -0.2106 -0.8854  0.7527
   14CHTO   O31 5766   5.873   5.866  -0.464  0.2025  0.1114  0.0955
   14CHTO   H68 5767   5.941   5.839  -0.523  0.1364 -0.5178  0.3073
   14CHTO   C39 5768   5.674   5.776  -0.354  0.1210 -0.8516  0.7672
   14CHTO   H81 5769   5.724   5.824  -0.270  1.3334  0.3678 -0.6114
   14CHTO    N7 5770   5.570   5.880  -0.389 -0.0979  0.1802  0.6425
   14CHTO   H73 5771   5.519   5.916  -0.300 -1.8049  1.6568 -0.8875
   14CHTO   H74 5772   5.495   5.843  -0.457 -1.4100  1.0640  1.5824
   14CHTO   C40 5773   5.607   5.646  -0.302  0.8784  0.8969  0.3426
   14CHTO   H82 5774   5.540   5.607  -0.378 -0.0915  0.7341  1.2613
   14CHTO   O26 5775   5.699   5.547  -0.257  0.3720 -0.7362  0.4751
   14CHTO   C41 5776   5.790   5.509  -0.358 -0.6988 -0.4056  0.4319
   14CHTO   H83 5777   5.735   5.469  -0.444  1.0925  0.6031 -1.2211
   14CHTO   C52 5778   5.883   5.394  -0.298 -0.7337 -0.1118 -0.0062
   14CHTO   O35 5779   5.941   5.440  -0.183  0.5415 -0.1564 -0.2040
   14CHTO   H71 5780   6.020   5.488  -0.200  1.2065 -0.8816  0.8141
   14CHTO   O28 5781   5.524   5.677  -0.186 -0.0876  0.1128 -0.7005
   14CHTO   C42 5782   5.410   5.604  -0.128 -0.4049  0.1863  0.5042
   14CHTO   H84 5783   5.401   5.641  -0.026  2.0243 -0.9406  1.1649
   14CHTO   C44 5784   5.417   5.454  -0.116  0.1225  0.2837 -0.3623
   14CHTO   H86 5785   5.427   5.411  -0.216 -1.6888 -0.3548 -0.2822
   14CHTO   O32 5786   5.532   5.426  -0.040 -0.1011 -0.3110 -0.3103
   14CHTO   H69 5787   5.551   5.335  -0.051 -0.5865 -0.3366 -0.9927
   14CHTO   C48 5788   5.287   5.387  -0.049  0.3922  0.3263 -0.4240
   14CHTO   H90 5789   5.281   5.402   0.058  1.6498  1.4246 -0.4863
   14CHTO    N9 5790   5.287   5.239  -0.066 -0.0852  0.4368  0.2614
   14CHTO   H77 5791   5.216   5.205  -0.140  0.9130  0.6595 -0.8061
   14CHTO   H78 5792   5.383   5.199  -0.094  0.5252 -0.2023  3.0792
   14CHTO   C51 5793   5.160   5.453  -0.105  0.5631 -0.6856 -0.2101
   14CHTO   H93 5794   5.142   5.406  -0.202  4.3883 -1.7858 -0.4889
   14CHTO   O30 5795   5.187   5.595  -0.120  1.1239 -0.1507 -0.7846
   14CHTO   C46 5796   5.281   5.643  -0.200  0.7204  0.0683  0.0786
   14CHTO   H88 5797   5.274   5.597  -0.298 -1.6205  1.7572 -0.5913
   14CHTO   C53 5798   5.251   5.788  -0.212  0.1944  0.1307  0.0316
   14CHTO   O72 5799   5.114   5.812  -0.257  0.8931  0.3060  0.3802
   14CHTO  H199 5800   5.105   5.809  -0.350 -0.8178 -0.6372  0.5641
   14CHTO   O22 5801   5.041   5.426  -0.023  0.2146  0.2585 -0.0873
   14CHTO   C31 5802   4.911   5.451  -0.084  0.1247 -0.3935  0.2474
   14CHTO   H59 5803   4.930   5.502  -0.181 -1.3287  2.0916  1.2096
   14CHTO   C29 5804   4.834   5.321  -0.116  0.9510  0.0069  0.9644
   14CHTO   H57 5805   4.812   5.260  -0.027 -3.2154 -1.9030 -1.2137
   14CHTO   O21 5806   4.919   5.249  -0.206 -0.4856 -0.0684  0.1388
   14CHTO   H37 5807   4.872   5.179  -0.247  0.6386  0.1270 -1.5636
   14CHTO   C27 5808   4.696   5.362  -0.181  0.7070 -0.2788  0.0747
   14CHTO   H55 5809   4.713   5.424  -0.271  0.6346 -0.9735 -0.4257
   14CHTO    N5 5810   4.611   5.246  -0.214 -0.5813  0.3266 -0.1279
   14CHTO   H43 5811   4.526   5.270  -0.277 -0.2405  0.3063 -0.5990
   14CHTO   H44 5812   4.581   5.194  -0.125  0.1239 -1.2302 -0.7760
   14CHTO   C25 5813   4.620   5.463  -0.097 -0.3531  0.2932  0.9167
   14CHTO   H53 5814   4.588   5.408  -0.007 -1.5944 -1.8145 -0.7525
   14CHTO   O17 5815   4.706   5.576  -0.066 -0.3970  0.4829 -0.1338
   14CHTO   C32 5816   4.827   5.547   0.001 -0.0157 -0.6511  0.0328
   14CHTO   H60 5817   4.800   5.498   0.094 -1.9958  1.6308  0.7151
   14CHTO   C36 5818   4.892   5.686   0.028  0.2825  0.2896  0.5946
   14CHTO   O25 5819   4.882   5.765  -0.090  0.3304  0.3003  0.1350
   14CHTO   H40 5820   4.881   5.854  -0.061 -0.4547 -0.7116  3.3582
   14CHTO   O15 5821   4.490   5.512  -0.172  0.6823  0.4914 -0.2576
   14CHTO   C19 5822   4.375   5.610  -0.157 -0.1731 -0.4246  0.4526
   14CHTO   H47 5823   4.366   5.632  -0.265 -1.0285 -0.8613  0.4253
   14CHTO   C20 5824   4.242   5.552  -0.095 -1.1780 -0.1816  0.0501
   14CHTO   H48 5825   4.264   5.506   0.003 -0.3539 -0.8490 -0.4343
   14CHTO   O19 5826   4.199   5.446  -0.177 -0.0498  0.5277  0.0640
   14CHTO   H35 5827   4.115   5.418  -0.147  0.1317  2.8830  3.1124
   14CHTO   C21 5828   4.126   5.657  -0.078  0.2203 -0.1854 -0.5715
   14CHTO   H49 5829   4.077   5.674  -0.173 -1.4870 -1.7408  0.0145
   14CHTO    N4 5830   4.016   5.622   0.015 -0.1298 -0.0889 -0.3327
   14CHTO   H41 5831   4.044   5.624   0.119  0.9442  0.9313 -0.6299
   14CHTO   H42 5832   3.972   5.528  -0.016 -0.1943  0.6580 -2.6365
   14CHTO   C22 5833   4.181   5.802  -0.039  0.1069  0.3245  0.2702
   14CHTO   H50 5834   4.181   5.805   0.070  1.8607 -3.7546  0.4684
   14CHTO   O14 5835   4.301   5.844  -0.111 -0.7398  0.0559 -0.5724
   14CHTO   C23 5836   4.413   5.751  -0.096  0.1617 -0.1540 -0.3496
   14CHTO   H51 5837   4.441   5.741   0.010 -0.9586  0.3642 -0.0078
   14CHTO   C34 5838   4.531   5.812  -0.176 -0.5657 -0.3360 -0.6320
   14CHTO   O23 5839   4.567   5.938  -0.118  0.2106  0.4076  0.0441
   14CHTO   H38 5840   4.653   5.961  -0.149  0.2345 -1.5216 -1.4436
   14CHTO   O16 5841   4.078   5.898  -0.094 -0.6943  0.2389  0.5371
   14CHTO   C24 5842   4.104   6.063  -0.072 -0.3358  0.0239  0.3338
   14CHTO   H52 5843   4.011   6.112  -0.042 -1.0530 -2.2284  1.9806
   14CHTO   C26 5844   4.155   6.122  -0.208 -0.1048 -0.9499 -0.1707
   14CHTO   H54 5845   4.252   6.075  -0.233  0.7314  1.2568 -1.2145
   14CHTO   O20 5846   4.067   6.080  -0.307  0.0509 -0.2964  0.5024
   14CHTO   H36 5847   4.094   6.131  -0.381 -2.4300  1.7630  0.9419
   14CHTO   C30 5848   4.174   6.277  -0.188 -0.0426 -0.0992  0.1604
   14CHTO   H58 5849   4.083   6.321  -0.144  1.9516  1.6973  2.6772
   14CHTO    N6 5850   4.196   6.355  -0.312  0.6449  0.0306 -0.5185
   14CHTO   H45 5851   4.099   6.390  -0.346  0.8536 -1.1845 -2.4051
   14CHTO   H46 5852   4.237   6.295  -0.391  0.5943 -1.7710  0.8119
   14CHTO   C33 5853   4.280   6.295  -0.074 -0.2434 -0.4766  0.0569
   14CHTO   H61 5854   4.371   6.245  -0.109 -0.4430 -0.7520 -0.0742
   14CHTO   O18 5855   4.226   6.237   0.047 -0.2764 -0.1727  0.4649
   14CHTO   C28 5856   4.206   6.095   0.044 -0.3204 -0.6112  0.1224
   14CHTO   H56 5857   4.295   6.033   0.034  0.0873  0.0137 -0.1953
   14CHTO   C35 5858   4.169   6.053   0.178 -0.2142 -0.2295 -0.5064
   14CHTO   O24 5859   4.282   6.053   0.268 -0.1123 -0.7014 -0.3170
   14CHTO   H39 5860   4.260   6.014   0.350  1.0793  0.7777  0.7554
   14CHTO    O9 5861   4.316   6.433  -0.051 -0.4187  0.7581  0.3758
   14CHTO   C13 5862   4.476   6.457  -0.025 -0.4744  0.9974 -0.7562
   14CHTO   H26 5863   4.526   6.362  -0.052 -0.3779  1.7142 -3.2790
   14CHTO   C11 5864   4.497   6.497   0.129 -1.2440 -0.2805 -0.3120
   14CHTO   H24 5865   4.484   6.407   0.192 -0.0214  0.5669  1.1727
   14CHTO    O8 5866   4.416   6.609   0.170 -0.1490 -0.0973 -0.1677
   14CHTO    H3 5867   4.434   6.612   0.262  1.7468 -1.8421 -0.4495
   14CHTO    C9 5868   4.649   6.522   0.145  0.2127  0.4273 -0.0563
   14CHTO   H22 5869   4.698   6.426   0.124 -1.0921 -0.4735  0.9345
   14CHTO    N2 5870   4.691   6.544   0.288  0.1773  0.0455  0.0143
   14CHTO   H10 5871   4.753   6.462   0.321 -0.5005 -0.9804 -1.1822
   14CHTO   H11 5872   4.615   6.584   0.353  1.4339 -0.2443  1.6816
   14CHTO    C7 5873   4.702   6.634   0.049 -0.0078 -0.4605 -0.5634
   14CHTO   H20 5874   4.810   6.608   0.045 -0.0994 -0.7260 -1.4452
   14CHTO    O4 5875   4.649   6.637  -0.084  0.3274  0.4098 -0.3669
   14CHTO   C14 5876   4.523   6.580  -0.115 -0.3430  0.1207 -0.5356
   14CHTO   H27 5877   4.524   6.543  -0.220  0.6577  2.0093 -1.2147
   14CHTO   C18 5878   4.427   6.699  -0.113  0.3960 -0.3614  0.2302
   14CHTO   O13 5879   4.305   6.673  -0.196 -0.0825 -0.0384 -0.0266
   14CHTO    H7 5880   4.296   6.744  -0.256  1.8823 -0.1904 -0.5652
   14CHTO    O2 5881   4.684   6.779   0.112  0.6245 -0.2065  0.1475
   14CHTO    C1 5882   4.744   6.891   0.041 -0.8104 -0.4948  0.2717
   14CHTO   H14 5883   4.708   6.898  -0.064 -0.2187 -1.0549  0.0314
   14CHTO    C2 5884   4.904   6.884   0.045  0.0100  0.5739 -0.3932
   14CHTO   H15 5885   4.942   6.848   0.141 -0.2486  1.5121  0.0566
   14CHTO    O6 5886   4.940   6.799  -0.064 -0.4826 -0.4815 -0.6999
   14CHTO    H1 5887   5.032   6.785  -0.054 -0.4498 -0.2362 -0.6445
   14CHTO    C3 5888   4.963   7.028   0.022 -1.0986  0.4027  0.6652
   14CHTO   H16 5889   4.948   7.053  -0.084  2.8267 -0.9376 -0.3011
   14CHTO    N1 5890   5.115   7.031   0.037  0.1472  0.2201  0.2213
   14CHTO    H8 5891   5.147   7.130   0.005 -0.8309  0.0887 -1.2085
   14CHTO    H9 5892   5.131   7.018   0.143 -1.5762 -0.9082  0.3596
   14CHTO    C4 5893   4.895   7.151   0.101  0.7395  0.0403 -0.1290
   14CHTO   H17 5894   4.907   7.128   0.206  1.7518 -0.7526 -0.4115
   14CHTO    O1 5895   4.754   7.139   0.058  0.8381  0.2746  0.6867
   14CHTO    C5 5896   4.691   7.027   0.113 -0.6347 -0.4020 -0.4382
   14CHTO   H18 5897   4.707   7.009   0.220 -0.9733 -1.1994 -0.5230
   14CHTO   C16 5898   4.540   7.027   0.092  1.0117  0.2787  0.3011
   14CHTO   O11 5899   4.483   6.945   0.188  0.3841 -0.1939 -0.6854
   14CHTO    H5 5900   4.470   6.857   0.158 -0.2751 -0.0898 -0.7185
   14CHTO    O3 5901   4.948   7.277   0.058  0.4983  0.2411 -0.0566
   14CHTO    C6 5902   4.956   7.379   0.161 -0.1339  0.9168  0.3933
   14CHTO   H19 5903   4.897   7.352   0.249 -0.0401 -1.0420 -0.1446
   14CHTO    C8 5904   5.104   7.387   0.198 -0.4837 -0.1747 -0.2358
   14CHTO   H21 5905   5.165   7.413   0.111 -0.2683 -2.6362 -0.8689
   14CHTO    O7 5906   5.145   7.258   0.248 -0.4394  0.0799 -0.1304
   14CHTO    H2 5907   5.238   7.243   0.245 -0.7968 -2.8180  1.3359
   14CHTO   C12 5908   5.122   7.501   0.308  0.2183 -0.5419  0.1806
   14CHTO   H25 5909   5.066   7.470   0.399 -0.3603  1.9659  0.7142
   14CHTO    N3 5910   5.272   7.527   0.351  0.2223  0.0895  0.0286
   14CHTO   H12 5911   5.280   7.522   0.458 -0.7277 -0.4621  0.0816
   14CHTO   H13 5912   5.309   7.616   0.303  0.2428 -0.3594 -0.8081
   14CHTO   C15 5913   5.050   7.641   0.262 -0.3977 -0.6544 -0.5680
   14CHTO   H28 5914   5.106   7.690   0.182 -2.4471  3.6451  0.4362
   14CHTO   O10 5915   5.020   7.733   0.383  0.2053 -0.1177 -0.6954
   14CHTO    H4 5916   5.102   7.754   0.424 -0.6536 -0.6045  1.3473
   14CHTO    O5 5917   4.922   7.619   0.210  0.5050  0.5249 -0.4310
   14CHTO   C10 5918   4.908   7.521   0.114  0.0763  0.5730  0.8164
   14CHTO   H23 5919   4.977   7.555   0.037 -0.9337 -0.1773 -0.4383
   14CHTO   C17 5920   4.761   7.525   0.073  0.2148  0.1140  0.4891
   14CHTO   O12 5921   4.725   7.651   0.010  0.1286 -0.1218 -0.2703
   14CHTO    H6 5922   4.658   7.634  -0.053 -0.5545  0.0538  0.3989
   15CHTO  H203 5923   5.404   5.098   2.375 -0.5990  0.5087 -0.8529
   15CHTO   O82 5924   5.442   5.039   2.313 -0.1086  0.0841 -0.1438
   15CHTO  C123 5925   5.341   4.967   2.244  0.0265  0.3151 -0.6085
   15CHTO  H227 5926   5.281   5.038   2.185  1.1250  0.8204 -1.1490
   15CHTO   O77 5927   5.422   4.880   2.162 -0.2319 -0.6013 -0.2149
   15CHTO  C118 5928   5.341   4.805   2.070 -0.1333  0.1424 -0.5694
   15CHTO  H222 5929   5.282   4.868   2.002  0.4946  3.0352  1.4750
   15CHTO  C125 5930   5.444   4.744   1.978 -0.2740  0.4626 -0.2330
   15CHTO   O84 5931   5.544   4.664   2.042  0.4586 -0.4852 -0.1008
   15CHTO  H205 5932   5.525   4.573   2.045  0.0942 -0.5287 -2.7383
   15CHTO  C114 5933   5.268   4.699   2.153  0.0880  0.1565 -0.5462
   15CHTO  H218 5934   5.340   4.647   2.216 -1.1611 -0.6115  0.2759
   15CHTO  C116 5935   5.166   4.768   2.247 -0.4645  0.5456 -0.1938
   15CHTO  H220 5936   5.091   4.819   2.184 -1.9293 -0.3042  0.8278
   15CHTO   O79 5937   5.104   4.672   2.333 -0.0388  0.4362 -0.3674
   15CHTO  H201 5938   5.024   4.689   2.377  0.1917 -0.4903  0.4239
   15CHTO  C120 5939   5.243   4.879   2.336 -0.4250  0.0124 -0.5483
   15CHTO  H224 5940   5.304   4.818   2.406 -0.6380  0.7298  0.2755
   15CHTO   N21 5941   5.154   4.963   2.421  0.9580  0.0829 -0.0542
   15CHTO  H211 5942   5.215   5.009   2.498  1.5399 -1.5340  0.4651
   15CHTO  H212 5943   5.086   4.898   2.472 -0.0525 -0.4076 -1.9658
   15CHTO   O75 5944   5.211   4.607   2.060 -0.0708  0.8502 -0.4909
   15CHTO  C112 5945   5.230   4.456   2.113 -0.2510 -0.2641 -0.7249
   15CHTO  H216 5946   5.204   4.444   2.219 -0.5960  1.0968 -0.6574
   15CHTO   O73 5947   5.376   4.423   2.090 -0.3722 -0.2874 -0.2514
   15CHTO  C113 5948   5.408   4.288   2.097 -0.0866  0.5616 -0.0594
   15CHTO  H217 5949   5.404   4.249   2.201 -1.8435 -0.4212 -0.4726
   15CHTO  C124 5950   5.552   4.274   2.062  0.2579  0.5876  0.3815
   15CHTO   O83 5951   5.575   4.287   1.916  0.0389  0.2579 -0.0027
   15CHTO  H204 5952   5.666   4.308   1.910  0.6003 -1.6915  1.1632
   15CHTO  C109 5953   5.328   4.181   2.017  0.6662  0.1621 -0.1104
   15CHTO  H213 5954   5.358   4.190   1.912  0.2459 -0.2220 -0.2678
   15CHTO  C110 5955   5.177   4.208   2.048  0.7764 -0.0682 -0.4371
   15CHTO  H214 5956   5.154   4.182   2.151 -0.1671  2.0177 -0.0951
   15CHTO   O78 5957   5.094   4.115   1.973  0.9891 -0.4133 -0.1072
   15CHTO  H200 5958   5.002   4.130   1.984  0.7534 -1.0096 -1.2132
   15CHTO  C111 5959   5.136   4.358   2.026 -0.7553  0.7870  0.3030
   15CHTO  H215 5960   5.154   4.382   1.921 -2.1043 -0.9317 -0.3400
   15CHTO   N19 5961   4.991   4.385   2.049 -0.3532  0.5726 -0.2090
   15CHTO  H207 5962   4.942   4.362   2.143 -0.0048 -1.4132 -0.4995
   15CHTO  H208 5963   4.933   4.343   1.969 -0.3333  2.0341 -1.0067
   15CHTO   O74 5964   5.359   4.044   2.058 -0.4501 -0.1536 -0.4828
   15CHTO  C115 5965   5.462   3.959   1.956  0.1489 -0.3082  0.1437
   15CHTO  H219 5966   5.545   4.019   1.918  0.5793 -1.6016 -0.9978
   15CHTO   O76 5967   5.538   3.848   2.033  0.0952  0.2027  0.2488
   15CHTO  C122 5968   5.452   3.745   2.089  0.4616  0.0123  0.8349
   15CHTO  H226 5969   5.389   3.797   2.161  1.2591  0.2969  1.3358
   15CHTO  C126 5970   5.540   3.650   2.173 -0.2608 -0.2084  0.4669
   15CHTO   O85 5971   5.622   3.559   2.105 -0.5111 -0.1320 -0.3497
   15CHTO  H206 5972   5.575   3.479   2.090  1.3472 -0.9949 -1.7371
   15CHTO  C121 5973   5.358   3.669   1.987  0.6569 -0.5842  0.0806
   15CHTO  H225 5974   5.384   3.561   1.996  0.9278 -0.3577  2.1120
   15CHTO   O81 5975   5.220   3.671   2.020 -0.1672 -0.0835 -0.5056
   15CHTO  H202 5976   5.190   3.583   2.035 -0.9695  0.0241 -1.4340
   15CHTO  C119 5977   5.382   3.730   1.844  0.4685 -0.9259 -0.4364
   15CHTO  H223 5978   5.488   3.705   1.838  0.7905 -0.5087  2.5249
   15CHTO  C117 5979   5.377   3.883   1.839 -0.0678  0.1573 -0.2869
   15CHTO  H221 5980   5.276   3.923   1.845 -0.0517  0.2983 -0.9614
   15CHTO   N20 5981   5.421   3.933   1.699 -0.0304 -0.1133 -0.2853
   15CHTO  H209 5982   5.514   3.892   1.661 -0.6176  0.4041 -2.3352
   15CHTO  H210 5983   5.414   4.040   1.694 -1.2151  0.0643  3.6771
   15CHTO   O80 5984   5.310   3.641   1.715  0.1114  0.3442  0.2386
   15CHTO  C103 5985   5.313   3.493   1.714  0.2340 -0.2440  0.6134
   15CHTO  H190 5986   5.331   3.456   1.815 -0.7542 -1.2551  0.4251
   15CHTO  C101 5987   5.184   3.424   1.652  0.0435  0.0537 -0.8785
   15CHTO  H188 5988   5.151   3.466   1.556  0.1990 -1.1212 -1.4512
   15CHTO   O68 5989   5.056   3.449   1.763 -0.3082  0.8563  0.8035
   15CHTO  H168 5990   5.054   3.542   1.772 -1.6583  0.7704  1.5352
   15CHTO   C99 5991   5.212   3.269   1.618  0.3213  0.2774 -0.3189
   15CHTO  H186 5992   5.239   3.219   1.713 -1.9250  1.0349  0.7456
   15CHTO   N17 5993   5.098   3.196   1.562 -0.2021 -0.2797  0.4217
   15CHTO  H174 5994   5.016   3.259   1.529 -0.5611 -1.2751 -0.6221
   15CHTO  H175 5995   5.065   3.110   1.619  2.2641 -0.1221  2.1497
   15CHTO   C97 5996   5.336   3.265   1.526  0.6094 -0.1996  0.2912
   15CHTO  H184 5997   5.324   3.322   1.433  1.0390 -2.5221 -1.2315
   15CHTO   O64 5998   5.445   3.315   1.605  0.3431  0.4552  0.1434
   15CHTO  C104 5999   5.438   3.459   1.633  0.3549 -0.3498 -0.7595
   15CHTO  H191 6000   5.434   3.518   1.541 -1.3801  0.9252  0.1064
   15CHTO  C108 6001   5.570   3.496   1.706  0.0482 -0.3064  0.0755
   15CHTO   O71 6002   5.584   3.415   1.825  0.8433  0.7969  0.2145
   15CHTO  H171 6003   5.513   3.435   1.882 -2.1170 -0.3155 -2.9127
   15CHTO   O62 6004   5.367   3.126   1.499  0.5060 -0.0237  0.3103
   15CHTO   C91 6005   5.454   3.112   1.383 -0.1266 -0.1589  0.4686
   15CHTO  H178 6006   5.492   3.211   1.356  1.2268 -0.8212 -0.0584
   15CHTO   C92 6007   5.369   3.067   1.260 -0.4033 -0.3298  0.4236
   15CHTO  H179 6008   5.282   3.131   1.239 -1.9841 -3.0534 -1.6469
   15CHTO   O66 6009   5.443   3.097   1.136  0.3177 -0.5480 -0.0209
   15CHTO  H166 6010   5.378   3.113   1.070  0.3432 -0.7865 -0.1061
   15CHTO   C93 6011   5.345   2.913   1.264  0.2857 -1.1608  0.3160
   15CHTO  H180 6012   5.328   2.885   1.159  1.7274 -2.2785  0.3680
   15CHTO   N16 6013   5.218   2.885   1.335 -0.0338 -0.0701 -0.1172
   15CHTO  H172 6014   5.227   2.881   1.443  0.8636  1.0521 -0.1383
   15CHTO  H173 6015   5.169   2.800   1.290  3.0878 -0.0874 -3.6908
   15CHTO   C94 6016   5.470   2.832   1.316 -0.5523  0.3964 -0.2696
   15CHTO  H181 6017   5.457   2.798   1.419  2.5429 -0.1248 -0.0065
   15CHTO   O61 6018   5.592   2.902   1.321  0.1353  0.1278 -0.1448
   15CHTO   C95 6019   5.584   3.018   1.410 -0.6903 -0.1317 -0.0456
   15CHTO  H182 6020   5.583   2.987   1.515  0.4911 -1.2946 -0.3718
   15CHTO  C106 6021   5.712   3.100   1.380  1.0223 -0.5502  0.1754
   15CHTO   O69 6022   5.736   3.221   1.445 -0.1497  0.4653  0.8059
   15CHTO  H169 6023   5.749   3.201   1.535 -1.3563  0.3178  0.9596
   15CHTO   O63 6024   5.486   2.721   1.233  0.1749 -0.6703 -0.1433
   15CHTO   C96 6025   5.507   2.559   1.313  0.2423  0.0185  0.4759
   15CHTO  H183 6026   5.497   2.564   1.422  1.0698  0.3729  0.5355
   15CHTO   C98 6027   5.655   2.523   1.289  0.7150 -0.0053 -0.0887
   15CHTO  H185 6028   5.686   2.533   1.183  2.4622 -0.8457  0.3294
   15CHTO   O67 6029   5.742   2.620   1.356  0.6076 -0.0956 -0.1546
   15CHTO  H167 6030   5.728   2.625   1.449  1.4575  0.1223 -0.0354
   15CHTO  C102 6031   5.686   2.375   1.336  0.3058 -0.2562  0.0633
   15CHTO  H189 6032   5.669   2.381   1.445 -2.7669  0.1424 -0.3994
   15CHTO   N18 6033   5.824   2.333   1.316  0.3997  0.2303 -0.0277
   15CHTO  H176 6034   5.865   2.299   1.410  0.6192 -1.1881 -0.6237
   15CHTO  H177 6035   5.836   2.263   1.235 -1.9692  0.6260 -0.7650
   15CHTO  C105 6036   5.586   2.272   1.271 -0.8916 -0.1859 -0.2241
   15CHTO  H192 6037   5.612   2.265   1.166  0.7496 -1.5451  0.2586
   15CHTO   O65 6038   5.450   2.311   1.297 -0.2704 -0.6089  0.1015
   15CHTO  C100 6039   5.414   2.451   1.248 -0.0434  0.2859  0.3235
   15CHTO  H187 6040   5.429   2.458   1.140  0.6646 -1.2573  0.3060
   15CHTO  C107 6041   5.270   2.490   1.283  0.3119  0.0793  0.3088
   15CHTO   O70 6042   5.248   2.450   1.424  0.1601  0.0345  0.0695
   15CHTO  H170 6043   5.209   2.524   1.466 -0.9792  0.7421 -2.1210
   15CHTO   O57 6044   5.613   2.110   1.347 -0.4059 -0.2784 -0.6219
   15CHTO   C85 6045   5.543   2.082   1.466 -0.8698 -1.6470  0.3482
   15CHTO  H157 6046   5.484   2.174   1.487 -0.7191 -1.3220 -0.6498
   15CHTO   C83 6047   5.639   2.057   1.589  0.3049  0.0226 -0.9670
   15CHTO  H155 6048   5.689   2.151   1.614 -0.1025 -0.0629  0.1857
   15CHTO   O56 6049   5.734   1.948   1.555 -0.5211 -0.3684  0.7204
   15CHTO  H135 6050   5.818   1.959   1.596  0.9548  2.1250 -2.7458
   15CHTO   C81 6051   5.552   2.005   1.709 -0.5609  0.4125 -0.3048
   15CHTO  H153 6052   5.484   2.086   1.736 -0.5326  0.4792 -0.4336
   15CHTO   N14 6053   5.635   1.978   1.830 -0.2868 -0.3539 -0.2899
   15CHTO  H141 6054   5.589   1.904   1.892  1.7370 -0.6894  0.8682
   15CHTO  H142 6055   5.644   2.069   1.885 -0.1646 -0.1636 -0.6245
   15CHTO   C79 6056   5.466   1.876   1.674 -0.4198 -0.3448  0.1857
   15CHTO  H151 6057   5.396   1.861   1.755 -0.2202 -1.6417  0.1296
   15CHTO   O52 6058   5.381   1.910   1.561  0.1973  0.5804 -0.0124
   15CHTO   C86 6059   5.448   1.960   1.446  0.0864  0.3170 -0.4401
   15CHTO  H158 6060   5.518   1.882   1.409  0.8813  0.5020  0.6638
   15CHTO   C90 6061   5.342   1.989   1.326  0.0881 -0.1972  0.4923
   15CHTO   O60 6062   5.403   1.969   1.197  0.4481  0.0632  0.6309
   15CHTO  H138 6063   5.374   1.888   1.160  2.3799 -2.7260  4.8554
   15CHTO   O50 6064   5.548   1.759   1.648  0.5453  0.5968 -0.4004
   15CHTO   C73 6065   5.491   1.635   1.600  0.2597  0.3226  0.2132
   15CHTO  H145 6066   5.399   1.649   1.542 -0.4700  0.8059  1.4610
   15CHTO   C74 6067   5.452   1.542   1.719 -1.1306  0.0285 -0.4619
   15CHTO  H146 6068   5.383   1.607   1.777  1.9246  1.4236  1.7391
   15CHTO   O54 6069   5.377   1.432   1.672  0.3072 -0.1603  0.0641
   15CHTO  H133 6070   5.383   1.378   1.749 -0.3603 -1.2884 -0.6528
   15CHTO   C75 6071   5.583   1.514   1.802  0.4320  0.5823 -0.0566
   15CHTO  H147 6072   5.614   1.608   1.850  0.7595  0.8312 -0.7440
   15CHTO   N13 6073   5.557   1.426   1.920 -0.1509  0.3743  0.0748
   15CHTO  H139 6074   5.471   1.464   1.971  0.6107  2.0412  0.1504
   15CHTO  H140 6075   5.560   1.320   1.898 -0.8218  0.3262  0.2060
   15CHTO   C76 6076   5.704   1.456   1.711 -0.1074  0.1345  0.0587
   15CHTO  H148 6077   5.696   1.352   1.678  0.9867  0.4564 -1.2711
   15CHTO   O49 6078   5.715   1.546   1.599  0.4113 -0.2820  0.1712
   15CHTO   C77 6079   5.596   1.562   1.522  0.8038  0.6492  0.8183
   15CHTO  H149 6080   5.557   1.463   1.500  2.1919  0.2682  0.0697
   15CHTO   C88 6081   5.625   1.640   1.390  0.8546  0.3917  0.2948
   15CHTO   O58 6082   5.678   1.583   1.319  0.7189  0.6337  0.5250
   15CHTO  H136 6083   5.710   1.639   1.250  1.3191 -2.2921 -1.6642
   15CHTO   O51 6084   5.836   1.480   1.795  0.2865  0.3160  0.1801
   15CHTO   C78 6085   5.967   1.422   1.725  0.5194 -0.2914  0.4806
   15CHTO  H150 6086   5.957   1.388   1.620  2.3795  1.2189 -0.2164
   15CHTO   C80 6087   6.016   1.292   1.799  0.6669 -0.0919 -0.9029
   15CHTO  H152 6088   6.042   1.318   1.904 -2.0460  0.2019 -0.2843
   15CHTO   O55 6089   5.904   1.199   1.798  0.7419 -0.3618 -0.0139
   15CHTO  H134 6090   5.849   1.221   1.871  0.7155  0.2206 -0.2086
   15CHTO   C84 6091   6.148   1.246   1.724 -0.5397  0.0966  0.3032
   15CHTO  H156 6092   6.121   1.227   1.620  0.2923  0.7945 -0.0431
   15CHTO   N15 6093   6.199   1.119   1.764 -0.1547  0.2278 -0.6398
   15CHTO  H143 6094   6.298   1.112   1.725 -0.0756 -0.7112 -0.2915
   15CHTO  H144 6095   6.206   1.113   1.871  2.8265  0.2525 -0.8048
   15CHTO   C87 6096   6.253   1.367   1.731 -0.3654 -0.2627  0.8932
   15CHTO  H159 6097   6.302   1.376   1.828 -0.8390  0.5589  1.0611
   15CHTO   O53 6098   6.193   1.494   1.677 -0.4984 -0.0015 -0.4083
   15CHTO   C82 6099   6.069   1.532   1.729  0.0270  0.3689 -0.3792
   15CHTO  H154 6100   6.091   1.563   1.831 -0.0728 -1.1709  0.1149
   15CHTO   C89 6101   6.016   1.656   1.653  0.9324  0.5610  0.3645
   15CHTO   O59 6102   6.085   1.775   1.676  0.3032 -0.7755 -0.0579
   15CHTO  H137 6103   6.029   1.830   1.727  1.0378 -0.9074  0.8959
   15CHTO   O45 6104   6.354   1.343   1.636  0.1233  0.9815  0.1678
   15CHTO   C67 6105   6.465   1.437   1.624 -0.1759 -0.3840 -0.2717
   15CHTO  H124 6106   6.429   1.540   1.632 -1.6713 -0.8982 -0.2194
   15CHTO   C65 6107   6.575   1.411   1.735 -0.3294 -0.1492  0.5491
   15CHTO  H122 6108   6.584   1.302   1.736  0.7989 -0.0621  1.1390
   15CHTO   O44 6109   6.534   1.470   1.860  0.3338 -0.5905 -0.4058
   15CHTO  H102 6110   6.446   1.446   1.883 -0.0964  0.4495 -0.9589
   15CHTO   C63 6111   6.717   1.452   1.683  0.5501  0.7487 -0.3798
   15CHTO  H120 6112   6.756   1.367   1.627 -1.9969 -2.0719  1.8982
   15CHTO   N11 6113   6.823   1.465   1.789 -0.5041  0.0002  0.0514
   15CHTO  H108 6114   6.784   1.456   1.888 -1.0620 -2.0493 -0.3463
   15CHTO  H109 6115   6.890   1.546   1.767 -1.0848  1.1888  2.4364
   15CHTO   C61 6116   6.705   1.577   1.593 -0.0403  0.4509 -0.1438
   15CHTO  H118 6117   6.807   1.596   1.557  0.6650 -1.3640  0.8718
   15CHTO   O40 6118   6.622   1.555   1.483 -0.4558  0.0130 -0.2010
   15CHTO   C68 6119   6.534   1.436   1.481 -0.0159 -0.8702 -0.1373
   15CHTO  H125 6120   6.593   1.343   1.466  0.2728 -0.8737  0.9421
   15CHTO   C72 6121   6.417   1.441   1.369 -1.0469  0.1994  0.2497
   15CHTO   O48 6122   6.481   1.437   1.236 -0.0753 -0.3234 -0.7919
   15CHTO  H105 6123   6.499   1.345   1.227  0.7916 -0.1086 -1.2961
   15CHTO   O38 6124   6.653   1.701   1.658  0.2199  0.7489  0.7450
   15CHTO   C55 6125   6.652   1.826   1.583 -0.4422  0.0179 -0.1977
   15CHTO  H112 6126   6.660   1.803   1.476  0.5049 -0.3234 -0.0665
   15CHTO   C56 6127   6.769   1.926   1.635  0.2512 -0.0527  0.3843
   15CHTO  H113 6128   6.770   1.921   1.745 -0.2565 -0.3250  0.3784
   15CHTO   O42 6129   6.899   1.872   1.593 -0.2094 -0.6071 -0.5718
   15CHTO  H100 6130   6.912   1.785   1.624 -0.4596 -0.2132  0.6909
   15CHTO   C57 6131   6.763   2.079   1.591 -0.5824  0.0295  0.4305
   15CHTO  H114 6132   6.789   2.084   1.485 -1.1996 -0.3086  0.2607
   15CHTO   N10 6133   6.861   2.161   1.665  0.6064 -0.5460  0.4276
   15CHTO  H106 6134   6.949   2.108   1.699  0.1041 -0.4964  1.8477
   15CHTO  H107 6135   6.891   2.249   1.611 -0.2627 -1.4830 -1.6166
   15CHTO   C58 6136   6.616   2.130   1.601 -0.2409  0.0456 -0.8190
   15CHTO  H115 6137   6.583   2.122   1.707  1.2997  1.5146 -0.2059
   15CHTO   O37 6138   6.523   2.031   1.539  0.0368  0.2334  0.0664
   15CHTO   C59 6139   6.513   1.899   1.592 -0.7952 -0.0969  0.2360
   15CHTO  H116 6140   6.481   1.901   1.696  0.2276 -3.5276  0.6905
   15CHTO   C70 6141   6.400   1.815   1.526  0.7984 -1.0463 -0.0394
   15CHTO   O46 6142   6.423   1.797   1.384 -0.4182  0.2065  0.1501
   15CHTO  H103 6143   6.385   1.858   1.325  0.2525  0.4622 -0.0214
   15CHTO   O39 6144   6.594   2.275   1.553  0.7607  0.3531 -0.0351
   15CHTO   C60 6145   6.468   2.305   1.483 -0.0757  0.1353 -0.2052
   15CHTO  H117 6146   6.404   2.218   1.467  0.8250 -0.0738 -2.9068
   15CHTO   C62 6147   6.378   2.412   1.557  0.5575 -0.3597  0.0763
   15CHTO  H119 6148   6.356   2.371   1.658  0.4901 -1.2650 -0.3021
   15CHTO   O43 6149   6.452   2.527   1.591 -0.7715 -0.1860  0.0292
   15CHTO  H101 6150   6.421   2.548   1.677  1.6011 -0.6982  1.0667
   15CHTO   C66 6151   6.246   2.446   1.469  0.1602  0.3008 -0.4854
   15CHTO  H123 6152   6.199   2.353   1.438 -0.4418  0.5884 -0.4257
   15CHTO   N12 6153   6.145   2.516   1.546  0.5785 -0.4428  0.0937
   15CHTO  H110 6154   6.053   2.528   1.491  0.8140 -2.2722 -0.7284
   15CHTO  H111 6155   6.187   2.606   1.588  1.2225 -0.6302 -0.1516
   15CHTO   C69 6156   6.288   2.514   1.336  0.2774 -0.5531  0.0804
   15CHTO  H126 6157   6.356   2.595   1.372  1.4695 -1.2044 -0.6756
   15CHTO   O41 6158   6.361   2.411   1.269  0.4082 -0.3460  0.0310
   15CHTO   C64 6159   6.496   2.366   1.340  0.4659 -0.0228 -0.4017
   15CHTO  H121 6160   6.551   2.461   1.358 -1.5505  1.0890  0.1873
   15CHTO   C71 6161   6.575   2.267   1.245  0.2728  0.4149  0.1089
   15CHTO   O47 6162   6.487   2.155   1.222  0.3005 -0.0998  0.5278
   15CHTO  H104 6163   6.454   2.175   1.136 -1.7943 -0.2111  1.2765
   15CHTO   O34 6164   6.159   2.560   1.247 -0.2007 -0.3066 -0.5917
   15CHTO   C49 6165   6.130   2.629   1.100  0.1223 -1.0382  0.7712
   15CHTO   H91 6166   6.151   2.556   1.023  0.1279  0.7493 -0.9573
   15CHTO   C47 6167   6.226   2.748   1.081 -0.6265  0.6249  0.2055
   15CHTO   H89 6168   6.226   2.776   0.974 -1.7284 -1.0674 -0.2565
   15CHTO   O33 6169   6.352   2.692   1.112 -0.0853 -0.0361 -0.4848
   15CHTO   H70 6170   6.420   2.755   1.095 -0.0505  0.2749  0.7927
   15CHTO   C45 6171   6.186   2.864   1.181  0.4491  0.3603  0.5695
   15CHTO   H87 6172   6.193   2.827   1.284 -0.6767 -0.5494  0.3283
   15CHTO    N8 6173   6.282   2.976   1.158  0.3091 -0.1673 -0.0529
   15CHTO   H75 6174   6.227   3.056   1.111  0.8780  1.1111  1.4113
   15CHTO   H76 6175   6.321   3.019   1.248 -2.0137  1.7777  0.0857
   15CHTO   C43 6176   6.028   2.900   1.159 -0.1658 -0.1574  0.5169
   15CHTO   H85 6177   5.994   2.975   1.230  0.3623 -0.7155  1.3594
   15CHTO   O29 6178   5.939   2.783   1.160 -0.3963 -0.0466  0.1457
   15CHTO   C50 6179   5.979   2.669   1.089  0.0391 -0.8703 -0.0358
   15CHTO   H92 6180   5.920   2.578   1.109  2.2616 -2.5243 -0.7251
   15CHTO   C54 6181   5.939   2.693   0.936  0.4970  0.4005 -0.2175
   15CHTO   O36 6182   5.796   2.666   0.930 -0.3586 -0.4925 -0.3162
   15CHTO   H72 6183   5.741   2.741   0.922 -1.5538 -1.1465  1.4450
   15CHTO   O27 6184   6.002   2.963   1.036  0.7728  0.0540  0.9595
   15CHTO   C37 6185   5.946   3.042   0.924 -0.7299 -0.4564 -0.2413
   15CHTO   H79 6186   5.920   2.975   0.841 -1.6537 -1.1626  0.6095
   15CHTO   C38 6187   5.814   3.105   0.972  0.2389  0.1303 -1.1963
   15CHTO   H80 6188   5.840   3.158   1.065 -0.7033 -1.2127 -0.1504
   15CHTO   O31 6189   5.718   3.000   0.998 -0.2572  0.9565 -0.3144
   15CHTO   H68 6190   5.762   2.935   1.050  1.0577  2.3437  0.3639
   15CHTO   C39 6191   5.757   3.215   0.876 -0.1127 -0.1954 -0.2419
   15CHTO   H81 6192   5.705   3.160   0.797 -0.1013 -2.4647  1.2725
   15CHTO    N7 6193   5.648   3.302   0.938  0.5099  0.1889  0.1721
   15CHTO   H73 6194   5.615   3.269   1.036 -1.1735  0.3717 -0.3317
   15CHTO   H74 6195   5.662   3.409   0.945  1.5939  0.0008  1.0457
   15CHTO   C40 6196   5.869   3.307   0.823 -0.4457  0.0757  0.3968
   15CHTO   H82 6197   5.890   3.392   0.888  0.2939  0.5438 -0.4468
   15CHTO   O26 6198   5.995   3.237   0.782 -0.3230  0.1711 -0.0478
   15CHTO   C41 6199   6.053   3.144   0.875  0.0574  0.0424 -0.0519
   15CHTO   H83 6200   6.084   3.201   0.963 -0.3236  0.5897 -0.2654
   15CHTO   C52 6201   6.177   3.072   0.814 -0.4266 -0.5384  1.2468
   15CHTO   O35 6202   6.151   2.979   0.686  0.3418 -0.1699 -0.4278
   15CHTO   H71 6203   6.221   2.918   0.674 -1.0423 -1.6588 -1.0813
   15CHTO   O28 6204   5.831   3.373   0.697 -0.5341 -0.6631  0.8687
   15CHTO   C42 6205   5.876   3.512   0.651  0.5605  0.5017 -0.1697
   15CHTO   H84 6206   5.868   3.509   0.542  0.6644 -0.8845 -0.1474
   15CHTO   C44 6207   6.025   3.554   0.685 -0.0829  0.7754 -0.3738
   15CHTO   H86 6208   6.043   3.535   0.791 -1.8494  5.2359  0.8516
   15CHTO   O32 6209   6.120   3.461   0.622 -0.3702 -0.3607  0.1145
   15CHTO   H69 6210   6.207   3.451   0.655  0.0718 -1.0051 -1.1877
   15CHTO   C48 6211   6.052   3.703   0.646 -0.0848  0.0863 -0.0150
   15CHTO   H90 6212   6.062   3.715   0.538  0.6402  2.5489  0.2857
   15CHTO    N9 6213   6.184   3.754   0.706 -0.1951  0.1831 -0.3906
   15CHTO   H77 6214   6.249   3.767   0.620 -0.6475  0.0245 -0.7577
   15CHTO   H78 6215   6.176   3.845   0.763 -1.4700  0.2348 -0.6451
   15CHTO   C51 6216   5.931   3.799   0.694  1.0325 -0.3160 -0.0514
   15CHTO   H93 6217   5.942   3.816   0.801 -1.6339  0.0797  0.1936
   15CHTO   O30 6218   5.798   3.749   0.666 -0.1458 -0.5635 -0.0311
   15CHTO   C46 6219   5.774   3.611   0.707 -0.0822 -0.0682 -0.1534
   15CHTO   H88 6220   5.778   3.608   0.816 -1.0188 -0.4337 -0.1245
   15CHTO   C53 6221   5.627   3.578   0.666 -0.1756 -0.0554  0.4382
   15CHTO   O72 6222   5.608   3.619   0.530  0.1912 -0.5143  0.3566
   15CHTO  H199 6223   5.691   3.619   0.487  0.4311  2.9368  0.7284
   15CHTO   O22 6224   5.941   3.923   0.618 -0.2293  0.4987  0.3488
   15CHTO   C31 6225   5.880   4.052   0.661  0.6557  0.3812  0.2997
   15CHTO   H59 6226   5.915   4.123   0.583 -0.2629  1.9610  1.3289
   15CHTO   C29 6227   5.728   4.057   0.660 -0.4588  0.4452  0.2543
   15CHTO   H57 6228   5.691   3.974   0.723 -0.1915 -1.3064 -1.8354
   15CHTO   O21 6229   5.692   4.025   0.524  0.0733 -0.4459 -0.0779
   15CHTO   H37 6230   5.599   4.026   0.519  0.0625 -0.0866  0.1799
   15CHTO   C27 6231   5.669   4.192   0.711  0.5183  0.7034  0.1612
   15CHTO   H55 6232   5.708   4.271   0.645  0.1425 -0.3612 -1.3591
   15CHTO    N5 6233   5.526   4.190   0.702  0.1421 -0.1646  0.3400
   15CHTO   H43 6234   5.489   4.291   0.712  0.0002 -0.0241 -1.4694
   15CHTO   H44 6235   5.475   4.113   0.758 -0.3478  0.1197  0.2877
   15CHTO   C25 6236   5.732   4.231   0.850  0.1632 -0.3345 -0.0838
   15CHTO   H53 6237   5.696   4.162   0.928  1.9877 -0.9208  0.2809
   15CHTO   O17 6238   5.877   4.229   0.840  0.4278  0.2474  0.2392
   15CHTO   C32 6239   5.945   4.109   0.792  0.3605  0.2259 -0.1791
   15CHTO   H60 6240   5.948   4.031   0.868 -0.8183 -1.6311 -1.9809
   15CHTO   C36 6241   6.087   4.146   0.773  0.7954  0.0622  0.6093
   15CHTO   O25 6242   6.153   4.171   0.899  0.0820  0.9426 -0.3004
   15CHTO   H40 6243   6.096   4.226   0.949  0.5553 -0.7971  2.2680
   15CHTO   O15 6244   5.709   4.374   0.899  0.2250  0.0068  0.1071
   15CHTO   C19 6245   5.732   4.456   1.017 -0.4796  0.0272 -0.4810
   15CHTO   H47 6246   5.815   4.401   1.065 -1.6196 -0.4675  0.9488
   15CHTO   C20 6247   5.775   4.607   0.996  0.4855  1.0809 -0.2119
   15CHTO   H48 6248   5.692   4.666   0.954 -0.2407  0.5146  0.4075
   15CHTO   O19 6249   5.882   4.617   0.902 -0.0483  0.7934 -0.0403
   15CHTO   H35 6250   5.880   4.554   0.833  2.2086  1.2697 -0.5757
   15CHTO   C21 6251   5.815   4.680   1.131 -0.2435  0.1132 -0.0552
   15CHTO   H49 6252   5.908   4.637   1.168  0.1012  1.3442  0.5239
   15CHTO    N4 6253   5.846   4.825   1.126  0.5407  0.1547  0.1028
   15CHTO   H41 6254   5.758   4.887   1.134  0.5292 -0.1511  2.5795
   15CHTO   H42 6255   5.893   4.856   1.034  2.2438  0.3027  1.0170
   15CHTO   C22 6256   5.708   4.656   1.238 -0.4434 -0.4586 -0.5413
   15CHTO   H50 6257   5.619   4.714   1.215 -0.2404 -1.1157 -3.1271
   15CHTO   O14 6258   5.675   4.519   1.241 -0.3861  0.0318  0.6865
   15CHTO   C23 6259   5.619   4.450   1.126  0.3258 -0.0102  0.7518
   15CHTO   H51 6260   5.531   4.510   1.099  0.4155  0.5465  1.7039
   15CHTO   C34 6261   5.587   4.309   1.174 -0.1393 -0.0963  0.1696
   15CHTO   O23 6262   5.511   4.241   1.067 -0.2926 -0.3474 -0.0082
   15CHTO   H38 6263   5.560   4.169   1.033 -0.6302 -0.1259 -0.9820
   15CHTO   O16 6264   5.758   4.673   1.376  0.6381 -0.4337  0.0833
   15CHTO   C24 6265   5.880   4.570   1.438  0.5797 -0.2982 -0.6686
   15CHTO   H52 6266   5.939   4.525   1.359 -0.3523 -1.2606 -0.8291
   15CHTO   C26 6267   5.820   4.458   1.530  0.2961  0.1176  0.2263
   15CHTO   H54 6268   5.751   4.511   1.599 -1.6456 -2.0321  0.0151
   15CHTO   O20 6269   5.728   4.374   1.452  0.4359 -0.6785  0.2674
   15CHTO   H36 6270   5.646   4.416   1.435  0.8326 -0.2596 -0.6568
   15CHTO   C30 6271   5.940   4.380   1.599  0.0340  0.1541 -0.4275
   15CHTO   H58 6272   6.012   4.332   1.531  1.1967  0.2042  0.7361
   15CHTO    N6 6273   5.891   4.266   1.676  0.8996 -0.1372  0.2583
   15CHTO   H45 6274   5.974   4.208   1.713  0.3216 -0.3104  1.3166
   15CHTO   H46 6275   5.823   4.201   1.622  1.7623  0.0662 -1.0873
   15CHTO   C33 6276   6.022   4.484   1.683 -0.9182 -0.9462  0.4665
   15CHTO   H61 6277   5.950   4.528   1.752 -2.3309 -1.7066 -0.4955
   15CHTO   O18 6278   6.069   4.582   1.592 -0.2739  0.3995 -0.1386
   15CHTO   C28 6279   5.970   4.657   1.518  0.6150 -0.7304  0.1002
   15CHTO   H56 6280   5.914   4.715   1.592  2.0860 -0.5536  1.0967
   15CHTO   C35 6281   6.047   4.759   1.433  0.7088  0.0009  0.0276
   15CHTO   O24 6282   6.126   4.694   1.336  0.2779  0.1621 -0.3797
   15CHTO   H39 6283   6.108   4.740   1.256 -0.6434  1.6956  0.6838
   15CHTO    O9 6284   6.128   4.434   1.764 -0.4468 -0.0160 -0.1488
   15CHTO   C13 6285   6.170   4.528   1.894  0.3459  0.6677 -0.1218
   15CHTO   H26 6286   6.084   4.523   1.963  0.0202  0.8689 -0.5085
   15CHTO   C11 6287   6.209   4.684   1.856  0.1439 -0.3809  0.7057
   15CHTO   H24 6288   6.119   4.727   1.809 -1.2920 -2.2533  1.6565
   15CHTO    O8 6289   6.311   4.675   1.752  0.2184 -0.0553 -0.0611
   15CHTO    H3 6290   6.342   4.763   1.746  0.4282  0.0155  1.8206
   15CHTO    C9 6291   6.250   4.759   1.985  0.6108 -0.6574 -0.3031
   15CHTO   H22 6292   6.172   4.735   2.059  0.1722  0.1862 -0.4886
   15CHTO    N2 6293   6.262   4.906   1.969  0.1115  0.5010 -0.4228
   15CHTO   H10 6294   6.353   4.923   1.913 -0.7003  0.8671 -1.6534
   15CHTO   H11 6295   6.176   4.939   1.913 -1.9222  0.5673  2.6281
   15CHTO    C7 6296   6.369   4.688   2.054  0.2968  0.2124  0.5031
   15CHTO   H20 6297   6.370   4.729   2.157 -0.6614  2.2961 -0.2962
   15CHTO    O4 6298   6.349   4.546   2.070  0.4137  0.3356  1.0173
   15CHTO   C14 6299   6.288   4.462   1.977  0.1074 -0.0149  0.1883
   15CHTO   H27 6300   6.249   4.376   2.036 -0.9326  1.5602  1.8173
   15CHTO   C18 6301   6.390   4.394   1.878 -0.1929  0.3482  0.0118
   15CHTO   O13 6302   6.492   4.320   1.948  0.7817  0.1289  0.1355
   15CHTO    H7 6303   6.581   4.342   1.927  0.9577  0.1827  0.9157
   15CHTO    O2 6304   6.502   4.711   1.978  0.3594 -0.6583 -0.3412
   15CHTO    C1 6305   6.609   4.736   2.068 -0.2176  0.4217 -0.7231
   15CHTO   H14 6306   6.599   4.653   2.141  1.1395  0.8962  0.0083
   15CHTO    C2 6307   6.610   4.874   2.146 -0.7695 -0.7903  0.1228
   15CHTO   H15 6308   6.586   4.946   2.067  0.2517 -0.4573  0.1202
   15CHTO    O6 6309   6.510   4.870   2.248  0.9330  0.5430  0.0307
   15CHTO    H1 6310   6.498   4.956   2.284  0.3064 -0.0035  1.1484
   15CHTO    C3 6311   6.753   4.895   2.214 -0.6016 -0.5199  0.5231
   15CHTO   H16 6312   6.747   4.843   2.311 -2.3099 -1.8772 -0.2874
   15CHTO    N1 6313   6.768   5.041   2.251  0.1610  0.6257  0.0714
   15CHTO    H8 6314   6.717   5.106   2.182  0.2515  1.7610  1.0676
   15CHTO    H9 6315   6.739   5.070   2.350 -4.4041  1.8757 -1.5318
   15CHTO    C4 6316   6.877   4.838   2.135 -0.6906 -0.0050 -0.5538
   15CHTO   H17 6317   6.894   4.898   2.045  2.4804 -0.7857 -0.5316
   15CHTO    O1 6318   6.844   4.707   2.089 -0.1146  0.1316 -0.1560
   15CHTO    C5 6319   6.739   4.707   1.991  0.7337 -0.9357  0.8394
   15CHTO   H18 6320   6.757   4.774   1.907 -1.5627 -2.3281 -0.8081
   15CHTO   C16 6321   6.726   4.565   1.933  0.2031 -0.3713 -0.1057
   15CHTO   O11 6322   6.838   4.527   1.848 -0.0544 -0.4923 -0.2930
   15CHTO    H5 6323   6.827   4.438   1.818 -3.0242 -0.6896  1.1889
   15CHTO    O3 6324   6.996   4.839   2.216 -0.2276  0.7265 -0.3054
   15CHTO    C6 6325   7.124   4.887   2.149 -0.1116 -0.2748  0.1967
   15CHTO   H19 6326   7.103   4.938   2.055  0.4834  0.3680  0.4075
   15CHTO    C8 6327   7.204   4.998   2.224 -0.2244 -0.6654 -0.3792
   15CHTO   H21 6328   7.228   4.952   2.319 -2.4451 -0.3145  0.3847
   15CHTO    O7 6329   7.111   5.104   2.237  0.4316  0.0523 -0.1940
   15CHTO    H2 6330   7.097   5.161   2.163  3.4511 -0.3190 -1.1453
   15CHTO   C12 6331   7.333   5.040   2.141 -0.0930  0.0390  0.1807
   15CHTO   H25 6332   7.293   5.089   2.050 -0.2817 -0.6646 -0.1212
   15CHTO    N3 6333   7.422   5.141   2.208 -0.4785 -0.1031  0.3464
   15CHTO   H12 6334   7.363   5.188   2.286 -1.0466  1.4735 -1.0041
   15CHTO   H13 6335   7.500   5.087   2.261  0.0766 -0.7414 -1.1137
   15CHTO   C15 6336   7.415   4.916   2.090  0.0979  0.8455 -0.1006
   15CHTO   H28 6337   7.472   4.865   2.167 -1.2781 -1.2239 -0.4100
   15CHTO   O10 6338   7.494   4.971   1.951  0.0745 -0.8061  0.6767
   15CHTO    H4 6339   7.512   5.061   1.970 -0.3173 -0.9947  1.9956
   15CHTO    O5 6340   7.331   4.819   2.029  0.2031 -0.7208 -0.2074
   15CHTO   C10 6341   7.225   4.771   2.118  0.2021  0.0816  0.8885
   15CHTO   H23 6342   7.265   4.740   2.215  0.7473 -1.5450  0.1586
   15CHTO   C17 6343   7.167   4.645   2.047  0.1035  0.4874  0.4459
   15CHTO   O12 6344   7.096   4.672   1.926  0.4247  0.1566 -0.3499
   15CHTO    H6 6345   7.117   4.598   1.872 -0.3979 -0.4867  0.2138
   16CHTO  H203 6346   4.026   4.288   0.787  0.0602  0.6990  0.2318
   16CHTO   O82 6347   4.075   4.317   0.861  0.5802  0.0899  0.1346
   16CHTO  C123 6348   4.142   4.213   0.927  0.4757  0.2002  0.1973
   16CHTO  H227 6349   4.069   4.133   0.947 -0.4201  0.7471 -0.8420
   16CHTO   O77 6350   4.240   4.172   0.825 -0.6679  0.0996 -0.9351
   16CHTO  C118 6351   4.309   4.054   0.873 -0.5845  0.3670  0.4432
   16CHTO  H222 6352   4.226   3.983   0.893 -0.5027 -0.1761 -1.0760
   16CHTO  C125 6353   4.406   3.995   0.756  0.3085 -0.7116 -0.1844
   16CHTO   O84 6354   4.337   3.943   0.642 -0.6349 -0.1155  0.0537
   16CHTO  H205 6355   4.282   4.012   0.611 -0.1981  0.4215  0.4761
   16CHTO  C114 6356   4.388   4.082   1.003 -0.2987 -0.6275  0.4616
   16CHTO  H218 6357   4.467   4.152   0.979 -0.2296  0.6030  3.8867
   16CHTO  C116 6358   4.301   4.153   1.111 -0.2069 -0.7830 -0.5221
   16CHTO  H220 6359   4.240   4.076   1.162 -0.3753 -1.2992 -1.4917
   16CHTO   O79 6360   4.393   4.204   1.210 -0.4735 -0.2561  0.5812
   16CHTO  H201 6361   4.359   4.272   1.264 -0.3961  0.2892 -0.0473
   16CHTO  C120 6362   4.206   4.268   1.063  0.3055  0.5965 -0.2928
   16CHTO  H224 6363   4.269   4.353   1.030  1.9538  0.1764  1.7388
   16CHTO   N21 6364   4.109   4.305   1.168 -0.3563  0.3928 -0.3596
   16CHTO  H211 6365   4.031   4.231   1.177 -0.5469  0.6348 -0.0036
   16CHTO  H212 6366   4.161   4.309   1.262  1.7782 -1.5867 -1.4107
   16CHTO   O75 6367   4.449   3.957   1.042 -0.1282 -0.2427  0.1367
   16CHTO  C112 6368   4.608   3.973   1.098 -0.0182 -0.0035 -0.1941
   16CHTO  H216 6369   4.601   4.035   1.188 -1.4052 -1.4803  0.7542
   16CHTO   O73 6370   4.691   4.030   0.994 -0.4276  0.0756 -0.2292
   16CHTO  C113 6371   4.824   4.058   1.022 -0.3115  0.0297 -0.4933
   16CHTO  H217 6372   4.834   4.139   1.097  0.0066  1.1428 -1.7252
   16CHTO  C124 6373   4.878   4.118   0.887 -0.0936  0.5174 -0.5310
   16CHTO   O83 6374   4.810   4.234   0.827  0.6404  0.6621 -0.2210
   16CHTO  H204 6375   4.722   4.208   0.810  0.6817 -1.1640  2.1323
   16CHTO  C109 6376   4.903   3.927   1.056  0.0322 -0.1548 -0.2322
   16CHTO  H213 6377   4.915   3.867   0.965  1.6608 -1.8721  1.0750
   16CHTO  C110 6378   4.823   3.846   1.166  0.3854  0.0562  0.0455
   16CHTO  H214 6379   4.842   3.903   1.258  0.9956  1.0887 -0.7052
   16CHTO   O78 6380   4.883   3.717   1.174 -0.0870  0.4966 -0.4561
   16CHTO  H200 6381   4.826   3.651   1.208 -1.1795  1.5998 -0.0908
   16CHTO  C111 6382   4.673   3.834   1.140  0.4574  0.2739  0.1204
   16CHTO  H215 6383   4.650   3.770   1.054 -1.5723  2.8711 -1.3308
   16CHTO   N19 6384   4.606   3.772   1.259  0.3654 -0.3343  0.8107
   16CHTO  H207 6385   4.499   3.767   1.250  0.3218  0.4566  0.8645
   16CHTO  H208 6386   4.632   3.830   1.346 -0.6568 -0.6069  1.3046
   16CHTO   O74 6387   5.037   3.958   1.100  0.1432 -0.1981 -0.0347
   16CHTO  C115 6388   5.147   3.858   1.052  0.7478  0.0213  0.3463
   16CHTO  H219 6389   5.114   3.755   1.067 -0.6474  0.4734  0.3902
   16CHTO   O76 6390   5.181   3.876   0.886 -0.1239 -0.4093  0.8027
   16CHTO  C122 6391   5.303   3.805   0.838  0.2733  0.0308 -0.8435
   16CHTO  H226 6392   5.330   3.836   0.737  4.7768 -3.0038 -0.7220
   16CHTO  C126 6393   5.268   3.654   0.831 -0.2487 -0.2010  0.4155
   16CHTO   O85 6394   5.149   3.636   0.746  0.3202  0.7940 -0.2772
   16CHTO  H206 6395   5.075   3.654   0.801  0.7016  0.9275  0.1959
   16CHTO  C121 6396   5.430   3.832   0.930  0.4602 -0.0928 -0.2511
   16CHTO  H225 6397   5.514   3.769   0.896  0.8919 -0.0492  0.7321
   16CHTO   O81 6398   5.477   3.967   0.928 -0.0629 -0.3996  0.0475
   16CHTO  H202 6399   5.562   3.965   0.967  0.1043 -0.5507 -0.3189
   16CHTO  C119 6400   5.394   3.800   1.076 -0.4302 -0.0967  0.3138
   16CHTO  H223 6401   5.376   3.692   1.081  1.1150 -0.3432  0.9456
   16CHTO  C117 6402   5.279   3.886   1.138  0.8563 -0.9710  0.1401
   16CHTO  H221 6403   5.290   3.994   1.127  2.6794 -1.3226 -1.6354
   16CHTO   N20 6404   5.253   3.860   1.280 -0.3260 -0.2940  0.0853
   16CHTO  H209 6405   5.339   3.811   1.324 -0.1861  0.7318  0.9703
   16CHTO  H210 6406   5.165   3.802   1.299  0.9107 -1.4864  2.3639
   16CHTO   O80 6407   5.532   3.809   1.171 -0.1243  0.1521 -0.0506
   16CHTO  C103 6408   5.631   3.723   1.142  0.0550 -0.8990 -0.0857
   16CHTO  H190 6409   5.611   3.662   1.054 -0.3313  1.0934 -1.4386
   16CHTO  C101 6410   5.773   3.792   1.119  0.3255 -0.5676  0.2397
   16CHTO  H188 6411   5.784   3.867   1.198 -1.9087 -1.2457  1.2375
   16CHTO   O68 6412   5.760   3.864   0.993  0.5715 -0.1356 -0.1394
   16CHTO  H168 6413   5.684   3.917   0.978  0.4428  0.1209  1.3912
   16CHTO   C99 6414   5.894   3.689   1.125  0.1679  0.4045  0.2970
   16CHTO  H186 6415   5.871   3.611   1.049  0.5796  0.0995  0.4831
   16CHTO   N17 6416   6.032   3.745   1.102  0.2683 -0.6383  0.2522
   16CHTO  H174 6417   6.098   3.663   1.077 -1.2436 -1.7011 -0.4138
   16CHTO  H175 6418   6.065   3.812   1.180 -2.2935  0.3311  0.5421
   16CHTO   C97 6419   5.881   3.612   1.258  0.1153 -0.1560  0.2204
   16CHTO  H184 6420   5.890   3.675   1.347 -2.3343 -1.2688  1.2751
   16CHTO   O64 6421   5.753   3.543   1.256  0.4555 -0.0838  0.1822
   16CHTO  C104 6422   5.643   3.630   1.269  0.1695  0.5684  0.9715
   16CHTO  H191 6423   5.647   3.692   1.358 -3.2069 -0.0537  1.6172
   16CHTO  C108 6424   5.527   3.533   1.294  0.2562  0.7706 -0.3530
   16CHTO   O71 6425   5.476   3.463   1.184 -0.0124 -0.2400 -0.2154
   16CHTO  H171 6426   5.412   3.518   1.143 -1.6545 -1.2458  0.9274
   16CHTO   O62 6427   5.970   3.490   1.274 -0.0245 -0.2528 -0.4355
   16CHTO   C91 6428   6.040   3.481   1.392  0.0979  0.3246  0.1141
   16CHTO  H178 6429   6.117   3.558   1.391  1.1139 -0.6714 -1.7834
   16CHTO   C92 6430   6.109   3.347   1.376  0.8929 -0.2749  0.2424
   16CHTO  H179 6431   6.040   3.270   1.338 -3.0772  2.7390  0.9787
   16CHTO   O66 6432   6.203   3.347   1.269 -0.0883  0.0856 -0.1747
   16CHTO  H166 6433   6.275   3.290   1.290  0.3519  0.6527 -0.1224
   16CHTO   C93 6434   6.169   3.291   1.512  0.1348  0.3618 -0.1021
   16CHTO  H180 6435   6.240   3.365   1.553  0.0788 -0.5151  1.6066
   16CHTO   N16 6436   6.250   3.166   1.501  0.8611  0.8860 -0.4351
   16CHTO  H172 6437   6.355   3.174   1.526  0.0994  2.1768  2.6281
   16CHTO  H173 6438   6.226   3.112   1.411  0.5578 -2.0951  1.3648
   16CHTO   C94 6439   6.046   3.275   1.608 -0.2587 -0.5124  0.2329
   16CHTO  H181 6440   5.966   3.219   1.561 -0.9295  2.6899 -2.6240
   16CHTO   O61 6441   6.005   3.406   1.628 -0.3264 -1.2221 -0.3038
   16CHTO   C95 6442   5.960   3.499   1.527  0.2173 -0.5343  0.3861
   16CHTO  H182 6443   5.857   3.474   1.500  0.5836 -0.0274 -1.5941
   16CHTO  C106 6444   5.978   3.643   1.589  0.9135 -0.4736 -0.1240
   16CHTO   O69 6445   5.897   3.662   1.707 -0.2306 -0.2799  0.3957
   16CHTO  H169 6446   5.925   3.745   1.742  0.1471  1.0558 -2.9099
   16CHTO   O63 6447   6.081   3.209   1.740  0.5197 -0.1490  0.0809
   16CHTO   C96 6448   5.986   3.108   1.804 -0.3227  0.6774 -0.5323
   16CHTO  H183 6449   6.044   3.065   1.886 -1.3186  0.0460 -0.1475
   16CHTO   C98 6450   5.937   2.981   1.721 -0.2949 -0.9994 -0.1875
   16CHTO  H185 6451   5.915   3.013   1.618  0.1135 -0.2849 -0.0556
   16CHTO   O67 6452   6.053   2.903   1.711  0.4754  0.0930 -0.1155
   16CHTO  H167 6453   6.100   2.941   1.639  2.3463  1.4445  1.7580
   16CHTO  C102 6454   5.815   2.901   1.793 -0.3108  0.3006 -0.3919
   16CHTO  H189 6455   5.854   2.857   1.886 -0.1260 -0.5699 -0.8795
   16CHTO   N18 6456   5.762   2.786   1.716 -0.0517 -0.2755  0.7858
   16CHTO  H176 6457   5.722   2.711   1.783 -2.1463  0.7882  0.7620
   16CHTO  H177 6458   5.688   2.818   1.645 -2.4372 -2.5230  2.1744
   16CHTO  C105 6459   5.708   3.002   1.842 -0.4071  0.5938  0.4454
   16CHTO  H192 6460   5.674   3.058   1.755 -0.0936 -0.4230 -0.3435
   16CHTO   O65 6461   5.769   3.092   1.929  0.2351  0.4655  0.2552
   16CHTO  C100 6462   5.865   3.186   1.870  0.1169 -0.1848  0.3329
   16CHTO  H187 6463   5.813   3.234   1.786 -0.7256  0.2057  1.0615
   16CHTO  C107 6464   5.913   3.291   1.967 -0.3599 -0.4064 -0.1050
   16CHTO   O70 6465   5.815   3.394   1.988 -0.5329  0.0664  0.0802
   16CHTO  H170 6466   5.811   3.438   1.905  2.2003  0.4686  0.0925
   16CHTO   O57 6467   5.570   2.926   1.922  0.2721 -0.2319  0.4994
   16CHTO   C85 6468   5.453   3.010   1.914  0.4597 -0.7680 -0.7049
   16CHTO  H157 6469   5.469   3.057   1.815  0.2706  3.1638  1.0470
   16CHTO   C83 6470   5.462   3.115   2.028  0.2015  0.2897 -0.8677
   16CHTO  H155 6471   5.554   3.170   2.007  0.0271  0.1454 -2.0232
   16CHTO   O56 6472   5.485   3.051   2.157 -0.5733  0.4318 -0.3870
   16CHTO  H135 6473   5.526   2.968   2.144  0.9703  1.0891  0.0959
   16CHTO   C81 6474   5.337   3.204   2.012  0.1181 -0.5033  0.2675
   16CHTO  H153 6475   5.336   3.251   1.914 -0.1945  1.0780  1.0094
   16CHTO   N14 6476   5.340   3.325   2.100 -0.4617 -0.6264 -0.3614
   16CHTO  H141 6477   5.409   3.396   2.060 -0.3625 -0.5474 -0.0468
   16CHTO  H142 6478   5.242   3.367   2.107 -1.4508 -2.5089 -2.3883
   16CHTO   C79 6479   5.203   3.119   2.032 -0.6775 -0.2898 -0.3268
   16CHTO  H151 6480   5.121   3.190   2.029 -1.0166 -0.6599  0.0195
   16CHTO   O52 6481   5.195   3.018   1.922 -0.0694 -0.5011  0.1831
   16CHTO   C86 6482   5.317   2.940   1.917  0.2984 -0.1840 -0.2507
   16CHTO  H158 6483   5.310   2.871   2.005  0.3077  0.0592 -0.0596
   16CHTO   C90 6484   5.302   2.845   1.798 -0.4002  0.1369 -0.0650
   16CHTO   O60 6485   5.287   2.905   1.675 -0.0484  0.2383 -0.5539
   16CHTO  H138 6486   5.209   2.869   1.637 -0.8991 -0.3135  1.6651
   16CHTO   O50 6487   5.196   3.057   2.166  0.2236  0.1069 -0.4549
   16CHTO   C73 6488   5.131   2.964   2.259 -0.7013 -0.3216  0.1342
   16CHTO  H145 6489   5.208   2.912   2.318  0.2223  1.7271  0.7689
   16CHTO   C74 6490   5.039   2.851   2.196  0.1284 -0.0158 -0.2458
   16CHTO  H146 6491   5.092   2.789   2.123 -0.9024 -0.0999 -0.9403
   16CHTO   O54 6492   5.015   2.752   2.301  0.5930  0.0977 -0.0864
   16CHTO  H133 6493   4.939   2.772   2.352 -0.5380 -1.4286 -1.1642
   16CHTO   C75 6494   4.915   2.914   2.137  0.7249 -0.5105  0.1991
   16CHTO  H147 6495   4.946   2.972   2.049  0.1290 -0.8361 -0.2279
   16CHTO   N13 6496   4.823   2.823   2.066  0.5033 -0.2041 -0.6800
   16CHTO  H139 6497   4.861   2.792   1.970 -1.1363 -0.1444 -1.3545
   16CHTO  H140 6498   4.721   2.856   2.054  1.5527  2.7936 -1.8570
   16CHTO   C76 6499   4.846   3.014   2.234 -0.1250  0.1941  0.6087
   16CHTO  H148 6500   4.790   2.956   2.308 -3.0771  2.9322  0.6306
   16CHTO   O49 6501   4.949   3.104   2.290  0.0217 -0.4890 -0.8934
   16CHTO   C77 6502   5.051   3.044   2.362 -0.4362  0.0809 -0.7701
   16CHTO  H149 6503   5.009   2.969   2.428  2.7562 -0.1444  1.1358
   16CHTO   C88 6504   5.126   3.151   2.440  0.4587  0.5858 -0.4942
   16CHTO   O58 6505   5.242   3.092   2.495 -0.0465 -0.1873 -0.3744
   16CHTO  H136 6506   5.319   3.142   2.477 -2.0653  3.1177 -0.3280
   16CHTO   O51 6507   4.742   3.114   2.143 -0.4600 -0.4192 -0.3700
   16CHTO   C78 6508   4.713   3.244   2.224 -0.2579  0.3236  0.3135
   16CHTO  H150 6509   4.783   3.249   2.310  0.9382 -0.0455 -0.6315
   16CHTO   C80 6510   4.566   3.253   2.272 -0.8074  0.2611  0.2338
   16CHTO  H152 6511   4.501   3.233   2.184 -2.1024  0.6407  1.0758
   16CHTO   O55 6512   4.567   3.133   2.358  0.3911  0.2658  0.1441
   16CHTO  H134 6513   4.492   3.129   2.414  0.8688 -1.3340  0.6844
   16CHTO   C84 6514   4.541   3.392   2.350  0.0770  0.1035 -0.5874
   16CHTO  H156 6515   4.603   3.385   2.439 -0.8896  1.3816  0.2073
   16CHTO   N15 6516   4.400   3.406   2.388 -0.4090  0.0451 -0.1485
   16CHTO  H143 6517   4.382   3.369   2.486  0.0646  1.2993  0.4272
   16CHTO  H144 6518   4.330   3.360   2.322 -0.9088 -0.3418  0.6466
   16CHTO   C87 6519   4.582   3.501   2.250 -0.1594  0.3687  0.5202
   16CHTO  H159 6520   4.531   3.486   2.155  1.0979 -0.3229 -0.0652
   16CHTO   O53 6521   4.721   3.487   2.215  0.3130 -0.1780  0.0441
   16CHTO   C82 6522   4.753   3.369   2.141  0.1847  0.0536 -0.4341
   16CHTO  H154 6523   4.693   3.365   2.050 -0.8675  1.7334  0.1597
   16CHTO   C89 6524   4.899   3.352   2.102  0.3399 -0.0761 -0.3290
   16CHTO   O59 6525   4.927   3.477   2.038 -0.1065 -0.0848 -0.1409
   16CHTO  H137 6526   5.019   3.470   2.022 -0.3063 -0.4284 -1.2090
   16CHTO   O45 6527   4.550   3.646   2.305 -0.0752 -0.6269 -0.2387
   16CHTO   C67 6528   4.649   3.750   2.305 -0.2531  0.5914  0.3089
   16CHTO  H124 6529   4.740   3.697   2.335 -0.3762  1.4817  2.3239
   16CHTO   C65 6530   4.674   3.820   2.170  0.4971 -0.6008 -0.3311
   16CHTO  H122 6531   4.578   3.826   2.119  0.0580  2.6226  0.7496
   16CHTO   O44 6532   4.775   3.735   2.106 -0.2022 -0.4506  0.1670
   16CHTO  H102 6533   4.767   3.742   2.013  4.2353 -0.9344 -0.3815
   16CHTO   C63 6534   4.698   3.972   2.198 -0.3249 -0.2124  0.0383
   16CHTO  H120 6535   4.602   4.019   2.216 -0.3081 -0.3531  0.5021
   16CHTO   N11 6536   4.737   4.045   2.073  0.4475 -0.4924 -0.1265
   16CHTO  H108 6537   4.659   4.039   2.000 -3.0865  0.3765  3.4090
   16CHTO  H109 6538   4.824   3.999   2.029 -0.8655 -0.6970 -2.6226
   16CHTO   C61 6539   4.785   3.992   2.322  1.0533  0.3427 -0.3945
   16CHTO  H118 6540   4.791   4.102   2.329 -0.5072  0.4058  0.2093
   16CHTO   O40 6541   4.725   3.942   2.444 -0.5176 -0.5797 -0.0140
   16CHTO   C68 6542   4.624   3.835   2.427  0.2604  0.4196  0.3143
   16CHTO  H125 6543   4.527   3.889   2.415 -0.4278 -0.0853  3.2190
   16CHTO   C72 6544   4.608   3.754   2.556 -0.2382  0.5059 -0.2057
   16CHTO   O48 6545   4.508   3.797   2.653 -0.2968 -0.1731 -0.7249
   16CHTO  H105 6546   4.425   3.756   2.638 -1.1513  1.4377 -0.5786
   16CHTO   O38 6547   4.915   3.940   2.295  0.7295  0.3519 -0.0463
   16CHTO   C55 6548   5.013   3.957   2.403 -0.3451  0.8962  0.1271
   16CHTO  H112 6549   4.972   3.918   2.498  0.2515  1.0311  0.4440
   16CHTO   C56 6550   5.047   4.112   2.418  0.1256  0.5786  0.0703
   16CHTO  H113 6551   5.062   4.156   2.319 -3.7505  1.6839 -0.1284
   16CHTO   O42 6552   4.939   4.188   2.480 -0.0537  0.1943 -0.7273
   16CHTO  H100 6553   4.942   4.192   2.573 -2.2767 -1.2829 -0.5546
   16CHTO   C57 6554   5.180   4.131   2.509  0.3231  0.2896 -0.3278
   16CHTO  H114 6555   5.152   4.097   2.609  1.0796  0.4766 -0.0529
   16CHTO   N10 6556   5.226   4.270   2.531  0.6409 -1.3156 -0.2057
   16CHTO  H106 6557   5.145   4.341   2.526  1.8298  0.0528 -0.6882
   16CHTO  H107 6558   5.303   4.303   2.462  2.2718  0.3317  2.3241
   16CHTO   C58 6559   5.285   4.035   2.449 -0.0447 -0.1499  0.3346
   16CHTO  H115 6560   5.311   4.066   2.346 -0.3682 -2.7579 -0.5560
   16CHTO   O37 6561   5.237   3.896   2.454  0.0928  0.3098 -0.1730
   16CHTO   C59 6562   5.132   3.872   2.368  0.8850 -0.4768 -0.3464
   16CHTO  H116 6563   5.166   3.890   2.266  0.2617  0.3101 -0.4220
   16CHTO   C70 6564   5.110   3.723   2.379 -0.2633  0.3254 -0.1318
   16CHTO   O46 6565   4.991   3.677   2.312 -0.1978  0.0394  0.5679
   16CHTO  H103 6566   4.919   3.688   2.371 -1.0353  0.7110 -0.5646
   16CHTO   O39 6567   5.449   4.039   2.537  0.6779 -0.7755  0.1913
   16CHTO   C60 6568   5.561   4.025   2.446  0.3022  1.0159  0.3189
   16CHTO  H117 6569   5.530   4.002   2.344 -4.3418 -2.5720  2.3988
   16CHTO   C62 6570   5.640   4.155   2.433 -0.2187 -0.5745  0.4932
   16CHTO  H119 6571   5.566   4.227   2.394  2.1442  1.7801  0.2025
   16CHTO   O43 6572   5.684   4.207   2.563  0.5939  0.0101 -0.1782
   16CHTO  H101 6573   5.755   4.154   2.592 -2.7301 -2.9254  3.0070
   16CHTO   C66 6574   5.766   4.143   2.332 -0.5056  0.2597  0.1418
   16CHTO  H123 6575   5.724   4.107   2.238  0.2745 -2.2323  0.7103
   16CHTO   N12 6576   5.836   4.267   2.304 -0.6255 -0.0182 -0.6517
   16CHTO  H110 6577   5.775   4.351   2.335  1.3189  1.0761  0.3032
   16CHTO  H111 6578   5.930   4.273   2.357 -0.8087 -1.0301 -0.2019
   16CHTO   C69 6579   5.860   4.023   2.373  0.9807 -1.0437 -0.3140
   16CHTO  H126 6580   5.908   4.057   2.467 -1.7681  0.1454  0.7165
   16CHTO   O41 6581   5.786   3.900   2.386 -0.0696  0.6319  0.4169
   16CHTO   C64 6582   5.662   3.911   2.484 -0.2944 -0.0036 -0.7201
   16CHTO  H121 6583   5.690   3.930   2.590  0.9813  2.5017 -1.4650
   16CHTO   C71 6584   5.593   3.773   2.489 -0.4850 -0.1191  0.3426
   16CHTO   O47 6585   5.498   3.760   2.599  0.5125  0.9109  0.4278
   16CHTO  H104 6586   5.541   3.799   2.673 -0.1056  1.7119  0.3607
   16CHTO   O34 6587   5.960   4.001   2.262 -0.2602 -0.2322 -0.0612
   16CHTO   C49 6588   6.060   3.937   2.153  0.3761 -0.5600  0.5481
   16CHTO   H91 6589   6.110   3.858   2.208 -0.9357 -1.6761  0.1509
   16CHTO   C47 6590   6.176   4.037   2.117 -0.0025  0.2733 -0.2501
   16CHTO   H89 6591   6.240   4.033   2.208  0.7186 -1.3176 -0.8104
   16CHTO   O33 6592   6.125   4.167   2.107 -0.3377  0.3147  0.0388
   16CHTO   H70 6593   6.063   4.190   2.173 -0.9184  0.6068 -0.6061
   16CHTO   C45 6594   6.250   3.991   1.976  0.2872  0.0503 -0.5921
   16CHTO   H87 6595   6.212   4.045   1.888 -0.3068  0.2763 -0.2003
   16CHTO    N8 6596   6.390   4.026   1.989  0.0457 -0.1336 -0.3195
   16CHTO   H75 6597   6.432   3.963   2.066 -0.3137  1.3459  1.1190
   16CHTO   H76 6598   6.434   3.994   1.895 -2.3846 -0.8464 -1.2562
   16CHTO   C43 6599   6.226   3.838   1.937  0.3147  0.0094  0.3468
   16CHTO   H85 6600   6.271   3.826   1.838 -0.3182 -0.4251  0.1084
   16CHTO   O29 6601   6.083   3.810   1.941  1.0437 -0.4664 -0.3621
   16CHTO   C50 6602   5.994   3.879   2.033  0.6390  0.5163  0.5910
   16CHTO   H92 6603   5.941   3.964   1.986 -1.3124 -1.5141 -0.9845
   16CHTO   C54 6604   5.880   3.782   2.083  0.7222  0.1684 -0.0172
   16CHTO   O36 6605   5.919   3.654   2.128  0.3615 -0.3684 -0.2622
   16CHTO   H72 6606   5.964   3.605   2.062  0.6736 -0.8991  0.3288
   16CHTO   O27 6607   6.302   3.747   2.016  0.1542 -0.3815  0.5113
   16CHTO   C37 6608   6.360   3.618   2.041 -0.0956  0.0541 -0.1925
   16CHTO   H79 6609   6.439   3.605   1.965 -0.4013 -1.2379 -0.3185
   16CHTO   C38 6610   6.427   3.612   2.185 -0.3831 -0.1111  0.6247
   16CHTO   H80 6611   6.346   3.639   2.255 -1.0354  0.4662 -0.3478
   16CHTO   O31 6612   6.531   3.707   2.195 -0.0135 -0.0779 -0.5303
   16CHTO   H68 6613   6.542   3.728   2.286  0.1284  1.0844 -0.8097
   16CHTO   C39 6614   6.482   3.467   2.223 -0.5931 -0.1207  0.7661
   16CHTO   H81 6615   6.575   3.449   2.168 -0.7484  0.5064  0.2952
   16CHTO    N7 6616   6.520   3.455   2.366 -0.1173 -0.2543  0.6319
   16CHTO   H73 6617   6.601   3.384   2.371  0.0003 -0.0980  0.9492
   16CHTO   H74 6618   6.560   3.552   2.391  1.0754 -0.4305 -0.5546
   16CHTO   C40 6619   6.390   3.348   2.166 -0.0689  0.0597  0.8438
   16CHTO   H82 6620   6.308   3.326   2.235 -0.0682 -2.0486  0.2053
   16CHTO   O26 6621   6.335   3.370   2.032  0.4360 -0.2043  0.5160
   16CHTO   C41 6622   6.270   3.499   2.022 -0.3159  0.6194 -0.0013
   16CHTO   H83 6623   6.189   3.495   2.097  0.5038 -1.5235  0.8260
   16CHTO   C52 6624   6.208   3.496   1.877  0.8592  0.5866  0.4908
   16CHTO   O35 6625   6.318   3.492   1.769 -0.2960  0.3350  0.3812
   16CHTO   H71 6626   6.275   3.492   1.686 -1.2251 -2.2057  0.8159
   16CHTO   O28 6627   6.467   3.227   2.168 -0.1279  0.2290  0.4169
   16CHTO   C42 6628   6.422   3.095   2.116  0.3688  0.3883  0.1677
   16CHTO   H84 6629   6.508   3.037   2.149  0.4884  0.6389  0.3052
   16CHTO   C44 6630   6.417   3.079   1.963  0.5984 -1.2390  0.7331
   16CHTO   H86 6631   6.324   3.120   1.924  0.8861 -0.0014  1.3437
   16CHTO   O32 6632   6.517   3.153   1.899  0.1776 -0.5593  0.2001
   16CHTO   H69 6633   6.519   3.140   1.806 -1.1028 -0.4644  0.1586
   16CHTO   C48 6634   6.426   2.932   1.932  0.1582  0.3091  0.4459
   16CHTO   H90 6635   6.522   2.907   1.977  0.1240 -0.2463  0.2101
   16CHTO    N9 6636   6.428   2.888   1.792 -0.1144 -0.4871 -0.2739
   16CHTO   H77 6637   6.335   2.850   1.753  0.2557 -1.1422 -0.5368
   16CHTO   H78 6638   6.514   2.832   1.757  0.0827 -1.6010  1.8878
   16CHTO   C51 6639   6.310   2.856   2.013 -0.2882  0.4486 -0.0332
   16CHTO   H93 6640   6.225   2.859   1.945  0.2544 -2.1290 -0.8943
   16CHTO   O30 6641   6.274   2.900   2.148 -0.8341  0.0526 -0.3218
   16CHTO   C46 6642   6.295   3.037   2.186 -0.4422 -0.2782 -0.5476
   16CHTO   H88 6643   6.208   3.093   2.152  0.3709  0.7364 -0.9843
   16CHTO   C53 6644   6.305   3.030   2.337 -0.5282 -0.1245 -0.0871
   16CHTO   O72 6645   6.426   2.978   2.389  0.0937 -0.1126 -0.3443
   16CHTO  H199 6646   6.405   2.927   2.465  1.1440  1.7310  1.2260
   16CHTO   O22 6647   6.343   2.721   2.044 -0.6262  0.0712 -0.0369
   16CHTO   C31 6648   6.240   2.621   2.079  0.7412  0.4402  0.5946
   16CHTO   H59 6649   6.155   2.679   2.121  0.4894  0.0895  0.5733
   16CHTO   C29 6650   6.188   2.538   1.958 -0.4880  0.3695 -0.0756
   16CHTO   H57 6651   6.275   2.500   1.902 -0.5263  1.9189 -1.2382
   16CHTO   O21 6652   6.125   2.625   1.869  0.0924  0.4332 -0.3076
   16CHTO   H37 6653   6.040   2.650   1.901  0.3968 -2.2677  2.8169
   16CHTO   C27 6654   6.095   2.424   2.003  0.4705 -0.2421 -0.0902
   16CHTO   H55 6655   6.006   2.463   2.055  2.0233  1.0631  1.6431
   16CHTO    N5 6656   6.054   2.339   1.894  0.4206  1.1323  0.4746
   16CHTO   H43 6657   6.045   2.392   1.800  1.0294  0.0152 -0.2150
   16CHTO   H44 6658   5.968   2.277   1.912  0.2660  1.5227  1.1266
   16CHTO   C25 6659   6.165   2.345   2.116  0.0308  0.2282  0.8923
   16CHTO   H53 6660   6.259   2.311   2.069  1.5414  2.2710  2.3776
   16CHTO   O17 6661   6.192   2.428   2.233 -0.5360  1.0962 -0.0600
   16CHTO   C32 6662   6.293   2.528   2.196  0.4066  0.2335  0.4836
   16CHTO   H60 6663   6.389   2.483   2.170  0.9835  1.7962 -0.1705
   16CHTO   C36 6664   6.319   2.616   2.322 -0.2378 -0.2918  0.0608
   16CHTO   O25 6665   6.196   2.671   2.371  0.0160  0.1738 -0.1998
   16CHTO   H40 6666   6.200   2.765   2.371 -1.1015  0.2353  0.0429
   16CHTO   O15 6667   6.080   2.232   2.164  0.3979  0.0793  0.3303
   16CHTO   C19 6668   5.957   2.190   2.238  0.1404 -0.5641  0.5394
   16CHTO   H47 6669   5.992   2.129   2.323  0.4782 -1.4793 -0.2408
   16CHTO   C20 6670   5.871   2.307   2.295 -0.8598  0.2943  0.3470
   16CHTO   H48 6671   5.841   2.377   2.216 -0.8203 -0.6133 -0.4735
   16CHTO   O19 6672   5.955   2.374   2.396  0.3934  0.0039  0.2859
   16CHTO   H35 6673   6.012   2.316   2.442 -0.1912 -0.7882  0.0302
   16CHTO   C21 6674   5.746   2.247   2.369  0.4575  0.5671 -0.4343
   16CHTO   H49 6675   5.774   2.187   2.455  0.1465 -0.1318 -0.8166
   16CHTO    N4 6676   5.672   2.352   2.430 -0.1791  0.2177 -0.7459
   16CHTO   H41 6677   5.592   2.307   2.487  1.9346 -2.2177  0.4060
   16CHTO   H42 6678   5.630   2.420   2.358  1.9270  1.2852 -0.9876
   16CHTO   C22 6679   5.669   2.146   2.287 -0.2497  0.3421  0.3478
   16CHTO   H50 6680   5.611   2.207   2.217 -0.5898  0.1200  0.4320
   16CHTO   O14 6681   5.757   2.051   2.225 -0.3381  0.0088  0.3857
   16CHTO   C23 6682   5.868   2.095   2.151 -0.3724  0.2141  0.4184
   16CHTO   H51 6683   5.827   2.150   2.065 -1.0543  0.2736  0.7783
   16CHTO   C34 6684   5.961   1.975   2.112 -0.1769  0.6920  0.2167
   16CHTO   O23 6685   6.068   2.017   2.029 -0.3859  0.4342  0.6388
   16CHTO   H38 6686   6.036   2.075   1.962 -1.9654 -1.4730 -0.3097
   16CHTO   O16 6687   5.575   2.061   2.365 -0.2898 -0.0996  0.5258
   16CHTO   C24 6688   5.463   2.005   2.266  0.0289  0.1230  0.5451
   16CHTO   H52 6689   5.491   2.017   2.161 -0.5543  1.8761  0.5755
   16CHTO   C26 6690   5.327   2.077   2.287  0.6462  0.8090 -0.3130
   16CHTO   H54 6691   5.295   2.072   2.393 -0.4081  2.2793 -0.5445
   16CHTO   O20 6692   5.348   2.217   2.268 -0.0764 -0.2987 -0.3002
   16CHTO   H36 6693   5.276   2.264   2.230 -0.8626 -0.3104  1.1203
   16CHTO   C30 6694   5.211   2.032   2.193 -0.0360  1.4449  0.6797
   16CHTO   H58 6695   5.225   2.069   2.090 -2.2062  0.2250 -0.0821
   16CHTO    N6 6696   5.078   2.081   2.237  0.3592 -0.2740  0.4283
   16CHTO   H45 6697   5.046   2.170   2.186  1.5067 -0.4139 -0.5726
   16CHTO   H46 6698   5.083   2.107   2.342  1.5071 -0.2250  0.3693
   16CHTO   C33 6699   5.209   1.874   2.187 -0.5730 -0.5579  0.4188
   16CHTO   H61 6700   5.167   1.826   2.276 -1.9049  0.0165  0.1138
   16CHTO   O18 6701   5.343   1.818   2.175 -0.3466 -0.2289 -0.1346
   16CHTO   C28 6702   5.426   1.852   2.287  0.1658 -0.5398 -0.2624
   16CHTO   H56 6703   5.394   1.840   2.391  0.9182 -1.5084 -0.1379
   16CHTO   C35 6704   5.549   1.760   2.286  0.2123 -0.0294 -0.3155
   16CHTO   O24 6705   5.515   1.622   2.280 -0.4034 -0.0033  0.0267
   16CHTO   H39 6706   5.585   1.559   2.286 -1.6317 -1.4848 -0.8634
   16CHTO    O9 6707   5.124   1.829   2.081  0.0480 -0.0735 -0.5357
   16CHTO   C13 6708   5.078   1.666   2.106 -0.2872 -0.3107  0.0598
   16CHTO   H26 6709   5.082   1.640   2.214  0.7804 -1.2144 -0.1928
   16CHTO   C11 6710   5.169   1.562   2.024 -0.3429  0.1951  0.4552
   16CHTO   H24 6711   5.276   1.571   2.046 -0.2479 -0.3235  0.2142
   16CHTO    O8 6712   5.152   1.603   1.888  0.3148 -0.0897  0.5919
   16CHTO    H3 6713   5.171   1.537   1.823  0.4688 -0.0569  0.6045
   16CHTO    C9 6714   5.117   1.422   2.050 -0.5709  1.0988 -0.3064
   16CHTO   H22 6715   5.169   1.391   2.141  0.5556  0.0387 -1.2855
   16CHTO    N2 6716   5.171   1.321   1.946  0.4587 -0.1735 -0.4097
   16CHTO   H10 6717   5.246   1.351   1.875  0.1064  0.5614 -0.4862
   16CHTO   H11 6718   5.091   1.262   1.903  0.6060 -0.3888 -0.3842
   16CHTO    C7 6719   4.958   1.412   2.088  0.0293  0.1534  0.2683
   16CHTO   H20 6720   4.965   1.416   2.199  0.0827 -3.5832  0.4623
   16CHTO    O4 6721   4.899   1.520   2.022 -0.4199 -0.0399  0.6292
   16CHTO   C14 6722   4.920   1.650   2.066  0.7543 -0.2171  0.1976
   16CHTO   H27 6723   4.850   1.662   2.151 -0.8626 -0.6537 -1.0575
   16CHTO   C18 6724   4.870   1.754   1.960  0.6874 -0.5119 -0.8187
   16CHTO   O13 6725   4.730   1.778   1.976 -0.5415 -0.1071  0.1111
   16CHTO    H7 6726   4.713   1.842   1.910 -1.6480 -1.3496 -0.8486
   16CHTO    O2 6727   4.892   1.281   2.033 -0.3781  0.2947 -0.1332
   16CHTO    C1 6728   4.775   1.222   2.093 -0.5514  0.3387 -0.0437
   16CHTO   H14 6729   4.704   1.193   2.013  0.1069  0.6533 -0.7511
   16CHTO    C2 6730   4.686   1.314   2.193  0.6835 -0.3554 -1.2316
   16CHTO   H15 6731   4.758   1.352   2.267  1.4102 -0.2490 -1.9902
   16CHTO    O6 6732   4.646   1.430   2.125 -0.7717 -0.1891 -0.0079
   16CHTO    H1 6733   4.596   1.390   2.056  0.6690 -0.5140 -0.8805
   16CHTO    C3 6734   4.577   1.233   2.257 -0.0495  0.4846  0.1056
   16CHTO   H16 6735   4.502   1.201   2.182 -2.2218  0.5408  2.1949
   16CHTO    N1 6736   4.497   1.310   2.361  0.0901  0.0720  0.2630
   16CHTO    H8 6737   4.439   1.242   2.421  0.2559  0.2369  0.6166
   16CHTO    H9 6738   4.567   1.366   2.422  1.8161 -0.1570 -1.4494
   16CHTO    C4 6739   4.640   1.100   2.316 -0.5914 -0.0497  0.6860
   16CHTO   H17 6740   4.710   1.125   2.395  1.0175 -0.0407 -0.7174
   16CHTO    O1 6741   4.705   1.015   2.214 -0.0683 -0.3474  0.0132
   16CHTO    C5 6742   4.820   1.080   2.156 -0.0220 -0.1618 -0.4363
   16CHTO   H18 6743   4.894   1.106   2.231  1.0939 -0.7713 -1.3159
   16CHTO   C16 6744   4.872   0.982   2.058  0.3384  0.3162 -0.3899
   16CHTO   O11 6745   4.949   0.894   2.141 -0.1848 -0.1148  0.3633
   16CHTO    H5 6746   4.900   0.838   2.198  0.6666 -1.4763 -0.2100
   16CHTO    O3 6747   4.542   1.012   2.372 -0.6727  0.0570  0.0181
   16CHTO    C6 6748   4.579   0.924   2.477  0.2918  0.0752  0.5731
   16CHTO   H19 6749   4.686   0.908   2.487  0.5717  1.0700 -0.8159
   16CHTO    C8 6750   4.543   0.980   2.618 -0.3943  0.6683 -0.7508
   16CHTO   H21 6751   4.446   1.029   2.618  0.4801  2.4743  0.6361
   16CHTO    O7 6752   4.643   1.085   2.648 -0.2990 -0.3843 -0.2133
   16CHTO    H2 6753   4.621   1.134   2.725 -2.8644 -0.5869 -0.7804
   16CHTO   C12 6754   4.541   0.876   2.736 -0.6664  0.2412  0.1737
   16CHTO   H25 6755   4.647   0.869   2.767 -0.7849  0.6917  0.6877
   16CHTO    N3 6756   4.473   0.926   2.860 -0.2282  0.0927  0.1218
   16CHTO   H12 6757   4.464   0.842   2.927  0.8871  0.2593  0.4947
   16CHTO   H13 6758   4.527   1.007   2.908 -0.5113 -0.1200  0.8058
   16CHTO   C15 6759   4.494   0.729   2.689 -0.5371  1.1429  0.9696
   16CHTO   H28 6760   4.386   0.722   2.674 -0.5336 -0.6538  1.6533
   16CHTO   O10 6761   4.538   0.624   2.780  0.3027 -0.7894 -0.3462
   16CHTO    H4 6762   4.493   0.628   2.862  0.3104 -3.0521 -0.1927
   16CHTO    O5 6763   4.559   0.692   2.567 -0.2802 -0.0641  0.6432
   16CHTO   C10 6764   4.521   0.779   2.458  0.1369 -0.7334  0.1851
   16CHTO   H23 6765   4.412   0.778   2.461  0.1573 -0.5145  2.4509
   16CHTO   C17 6766   4.558   0.706   2.322  0.2850  0.9294  0.0768
   16CHTO   O12 6767   4.510   0.790   2.216  0.6190 -0.4155  0.4265
   16CHTO    H6 6768   4.544   0.774   2.130  0.7014  0.6045  0.2665
   17CHTO  H203 6769   3.513   5.151   0.909  1.2037  0.4129 -2.6627
   17CHTO   O82 6770   3.557   5.215   0.961 -0.4445 -0.3297 -0.2485
   17CHTO  C123 6771   3.684   5.164   0.996 -0.0877  0.3107  1.2660
   17CHTO  H227 6772   3.694   5.064   0.950  0.4295 -0.0542  2.1534
   17CHTO   O77 6773   3.772   5.270   0.932  0.2268 -0.4212  0.1360
   17CHTO  C118 6774   3.911   5.260   0.954  0.4464  0.2279  0.2151
   17CHTO  H222 6775   3.939   5.170   0.897 -0.7617 -0.7856  1.1809
   17CHTO  C125 6776   3.963   5.390   0.880 -0.2206 -0.2065 -0.5993
   17CHTO   O84 6777   3.976   5.377   0.738  0.1907 -0.3252  0.0339
   17CHTO  H205 6778   4.059   5.412   0.714  0.1456  0.9470  1.6792
   17CHTO  C114 6779   3.944   5.249   1.105 -0.4182 -0.1330 -0.3027
   17CHTO  H218 6780   3.929   5.346   1.153 -1.1672 -0.2289 -0.3333
   17CHTO  C116 6781   3.864   5.141   1.180 -0.1329  0.3362 -0.2637
   17CHTO  H220 6782   3.901   5.041   1.147 -1.1003  0.5982 -2.1987
   17CHTO   O79 6783   3.899   5.152   1.312  0.4847  0.1222  0.4451
   17CHTO  H201 6784   3.898   5.241   1.340  1.5213  0.0929  0.5829
   17CHTO  C120 6785   3.711   5.150   1.154 -0.0955  0.1428  0.2825
   17CHTO  H224 6786   3.688   5.248   1.199 -0.3297  0.6609 -0.9295
   17CHTO   N21 6787   3.633   5.043   1.221 -0.3377 -0.4414  0.3680
   17CHTO  H211 6788   3.581   5.073   1.311 -1.9860 -1.3622 -0.2506
   17CHTO  H212 6789   3.698   4.958   1.231  1.2790  0.7103 -0.0419
   17CHTO   O75 6790   4.085   5.226   1.096 -0.2854 -0.2631 -0.2012
   17CHTO  C112 6791   4.177   5.357   1.163 -0.1588  0.3226  0.3908
   17CHTO  H216 6792   4.117   5.413   1.236 -1.0885  1.4157 -1.1763
   17CHTO   O73 6793   4.212   5.439   1.057 -0.8550  0.1951 -0.4678
   17CHTO  C113 6794   4.285   5.556   1.091  0.6307  0.9320  0.2418
   17CHTO  H217 6795   4.248   5.613   1.179 -0.2075  0.5067  0.1608
   17CHTO  C124 6796   4.291   5.655   0.970  0.2439 -0.1121  0.2961
   17CHTO   O83 6797   4.167   5.723   0.944 -0.5419  0.1836  0.3703
   17CHTO  H204 6798   4.146   5.783   1.012 -0.7060 -0.0466  0.5215
   17CHTO  C109 6799   4.424   5.522   1.146 -0.5702  0.3034 -0.2684
   17CHTO  H213 6800   4.484   5.485   1.062  1.1378  1.0923  0.5923
   17CHTO  C110 6801   4.412   5.421   1.263 -0.0789  0.1426  0.1750
   17CHTO  H214 6802   4.383   5.465   1.358  1.5867 -2.3552  1.9239
   17CHTO   O78 6803   4.546   5.378   1.296 -0.1331  0.1994  0.5435
   17CHTO  H200 6804   4.546   5.289   1.327  1.3754  0.0880  0.2433
   17CHTO  C111 6805   4.315   5.305   1.227  0.7671  0.0344 -0.6538
   17CHTO  H215 6806   4.358   5.240   1.150 -1.9199 -1.6399 -0.8049
   17CHTO   N19 6807   4.281   5.224   1.343  0.0274  0.0428 -0.4697
   17CHTO  H207 6808   4.203   5.152   1.323 -0.1118  0.0066  0.2179
   17CHTO  H208 6809   4.222   5.282   1.412 -1.5567 -0.9769 -0.9467
   17CHTO   O74 6810   4.489   5.645   1.192 -0.3725 -0.4257  0.0975
   17CHTO  C115 6811   4.645   5.673   1.124 -0.2705  0.2336  0.5097
   17CHTO  H219 6812   4.721   5.697   1.198  0.2421 -0.0487  0.0860
   17CHTO   O76 6813   4.706   5.532   1.058 -0.1822 -0.2113 -0.0153
   17CHTO  C122 6814   4.832   5.553   0.996 -0.1143 -0.1400 -0.7042
   17CHTO  H226 6815   4.856   5.474   0.926  0.1431 -0.2300 -0.5170
   17CHTO  C126 6816   4.943   5.557   1.095  0.0973 -0.0476  0.4600
   17CHTO   O85 6817   4.949   5.437   1.162  0.0696 -0.2589 -0.4691
   17CHTO  H206 6818   5.037   5.432   1.193 -1.1615 -0.0406  3.3864
   17CHTO  C121 6819   4.847   5.675   0.898  0.0007 -0.4633  1.2054
   17CHTO  H225 6820   4.956   5.686   0.878 -0.2056  0.2609  0.4492
   17CHTO   O81 6821   4.782   5.648   0.770 -0.1584  0.3897  0.0922
   17CHTO  H202 6822   4.698   5.607   0.781  0.4657 -0.1789  3.3107
   17CHTO  C119 6823   4.795   5.810   0.962  0.2220  0.4147 -0.4485
   17CHTO  H223 6824   4.861   5.826   1.047  0.1088 -1.5203  0.0326
   17CHTO  C117 6825   4.648   5.794   1.014 -0.4570  0.2008 -0.8020
   17CHTO  H221 6826   4.573   5.761   0.942 -0.4533 -0.8501 -0.3310
   17CHTO   N20 6827   4.590   5.921   1.068  0.6700 -0.3018 -0.1706
   17CHTO  H209 6828   4.483   5.908   1.062  0.7386 -1.3768  0.8751
   17CHTO  H210 6829   4.638   6.003   1.017  0.1697  1.0588  1.5177
   17CHTO   O80 6830   4.821   5.924   0.877 -0.0436  1.2081  0.1981
   17CHTO  C103 6831   4.948   6.010   0.906 -0.2492  0.0434 -0.0723
   17CHTO  H190 6832   4.947   6.040   1.010 -0.1529 -0.9364  0.2120
   17CHTO  C101 6833   5.084   5.935   0.881 -0.1635  0.4334 -0.2573
   17CHTO  H188 6834   5.059   5.875   0.794  2.2961 -0.0752 -0.6424
   17CHTO   O68 6835   5.116   5.852   1.005 -0.2851  0.4184 -0.2278
   17CHTO  H168 6836   5.036   5.818   1.040  0.1848  1.4819  2.0129
   17CHTO   C99 6837   5.201   6.039   0.850  0.2922 -0.3637  0.6947
   17CHTO  H186 6838   5.240   6.093   0.939  1.1261  2.7527 -1.4575
   17CHTO   N17 6839   5.328   5.983   0.793  0.0631  0.3091  0.3481
   17CHTO  H174 6840   5.332   5.876   0.808 -2.1021  0.2101  0.4296
   17CHTO  H175 6841   5.347   6.010   0.690 -0.5142  3.0093  0.9209
   17CHTO   C97 6842   5.140   6.157   0.758  0.0715  0.0346  0.0409
   17CHTO  H184 6843   5.108   6.116   0.660 -0.1566  0.8032 -0.2044
   17CHTO   O64 6844   5.036   6.225   0.825  0.0029 -0.0088 -0.2144
   17CHTO  C104 6845   4.918   6.139   0.824  0.0714 -0.0180  0.7713
   17CHTO  H191 6846   4.900   6.120   0.718 -1.9821  0.3772  1.0242
   17CHTO  C108 6847   4.788   6.200   0.880 -0.0131 -0.2185  0.0425
   17CHTO   O71 6848   4.731   6.275   0.776  0.5435  0.1890  0.8874
   17CHTO  H171 6849   4.767   6.361   0.777 -0.6218  0.7388 -1.5042
   17CHTO   O62 6850   5.230   6.267   0.715 -0.4648 -0.1687 -0.1647
   17CHTO   C91 6851   5.208   6.344   0.601  0.2611 -0.0913 -0.9000
   17CHTO  H178 6852   5.186   6.277   0.518 -0.8673 -0.5932 -0.2120
   17CHTO   C92 6853   5.351   6.404   0.562 -0.5028  0.7131 -1.0455
   17CHTO  H179 6854   5.428   6.326   0.571 -0.0886  1.1914 -0.3475
   17CHTO   O66 6855   5.359   6.444   0.425  0.4474 -0.1246  0.3071
   17CHTO  H166 6856   5.277   6.471   0.390  0.4560 -0.3841  0.0914
   17CHTO   C93 6857   5.391   6.533   0.651  0.0703 -0.2279  0.2479
   17CHTO  H180 6858   5.442   6.603   0.584  0.2645  1.0241  1.6821
   17CHTO   N16 6859   5.501   6.506   0.745 -0.5478 -0.1436 -0.1649
   17CHTO  H172 6860   5.558   6.594   0.770 -1.5395 -0.1712  2.3186
   17CHTO  H173 6861   5.459   6.466   0.836  1.1166  0.6654  0.9766
   17CHTO   C94 6862   5.263   6.602   0.713 -0.4824 -0.1917 -0.0025
   17CHTO  H181 6863   5.232   6.550   0.804  0.9249 -1.1760 -0.0713
   17CHTO   O61 6864   5.150   6.598   0.622 -0.5152  0.0961  0.1744
   17CHTO   C95 6865   5.099   6.464   0.617  0.5532 -0.3258  0.0784
   17CHTO  H182 6866   5.045   6.448   0.710 -4.5471 -2.8385 -3.1193
   17CHTO  C106 6867   4.990   6.454   0.502 -0.5725  0.2466 -0.6215
   17CHTO   O69 6868   5.016   6.452   0.361 -0.9709  0.4025 -0.5691
   17CHTO  H169 6869   5.034   6.362   0.344  1.4490  0.3534  2.0251
   17CHTO   O63 6870   5.287   6.762   0.746 -0.0425  0.1271  0.2887
   17CHTO   C96 6871   5.271   6.796   0.929 -0.5998  0.1742 -0.2041
   17CHTO  H183 6872   5.323   6.722   0.990 -1.4547  0.2510  0.6248
   17CHTO   C98 6873   5.121   6.783   0.974  0.4233 -0.0540  0.2405
   17CHTO  H185 6874   5.054   6.828   0.899 -0.0383 -1.8653 -0.4802
   17CHTO   O67 6875   5.086   6.645   0.964  0.1450  0.6228 -0.2338
   17CHTO  H167 6876   5.063   6.613   1.049  2.8204  0.4069  0.4376
   17CHTO  C102 6877   5.089   6.842   1.118 -0.6007 -0.4477  0.6227
   17CHTO  H189 6878   5.133   6.769   1.187  0.8703  0.4627  0.6753
   17CHTO   N18 6879   4.943   6.843   1.143 -0.0702 -0.4025 -0.3691
   17CHTO  H176 6880   4.888   6.912   1.079 -0.1932  2.4137  2.6182
   17CHTO  H177 6881   4.912   6.839   1.246  1.9265 -4.2287  0.1693
   17CHTO  C105 6882   5.169   6.973   1.142 -0.3900 -0.3887 -0.5994
   17CHTO  H192 6883   5.117   7.054   1.091  0.0630  0.0054 -0.4348
   17CHTO   O65 6884   5.303   6.963   1.102 -0.0940  0.6985 -0.1656
   17CHTO  C100 6885   5.324   6.943   0.958  0.4131  0.2234  0.0566
   17CHTO  H187 6886   5.267   7.010   0.893  0.0373  1.0836  1.2484
   17CHTO  C107 6887   5.470   6.959   0.924  0.7329  0.2984 -0.1268
   17CHTO   O70 6888   5.489   7.099   0.907  0.0836 -0.0404 -0.2845
   17CHTO  H170 6889   5.471   7.136   0.992  1.0636 -2.3965  1.0046
   17CHTO   O57 6890   5.154   7.011   1.292 -0.3513  0.1919 -0.3189
   17CHTO   C85 6891   5.180   7.140   1.349 -0.4163 -0.3654  0.0109
   17CHTO  H157 6892   5.175   7.216   1.268  1.1634  3.2197  3.1004
   17CHTO   C83 6893   5.330   7.142   1.402 -0.2815 -0.7069  0.2348
   17CHTO  H155 6894   5.391   7.121   1.314 -2.2442 -1.4873 -0.9834
   17CHTO   O56 6895   5.351   7.030   1.488 -0.0187 -0.3245  0.0526
   17CHTO  H135 6896   5.359   6.953   1.435  1.4985 -0.2117  0.0830
   17CHTO   C81 6897   5.362   7.283   1.454 -0.8323  0.3256  0.3310
   17CHTO  H153 6898   5.350   7.358   1.376 -0.8584  1.6896  1.6225
   17CHTO   N14 6899   5.509   7.298   1.480  0.0408 -0.3177 -0.0952
   17CHTO  H141 6900   5.564   7.292   1.389  2.8008  2.0444  1.2988
   17CHTO  H142 6901   5.524   7.396   1.523 -1.3666  1.0944 -2.7085
   17CHTO   C79 6902   5.262   7.316   1.573 -0.4427  0.3790 -0.1162
   17CHTO  H151 6903   5.285   7.417   1.609 -1.2937  0.7992 -0.7382
   17CHTO   O52 6904   5.124   7.313   1.532 -0.0117 -0.4895  0.0979
   17CHTO   C86 6905   5.093   7.186   1.475  0.7400  0.2786 -0.3306
   17CHTO  H158 6906   5.100   7.114   1.560 -0.2634  2.1661  1.3885
   17CHTO   C90 6907   4.946   7.183   1.439 -0.3919 -0.3191  0.0091
   17CHTO   O60 6908   4.911   7.049   1.400 -0.6802 -0.1456 -0.4738
   17CHTO  H138 6909   4.821   7.040   1.425 -1.2489  3.7247 -0.7812
   17CHTO   O50 6910   5.280   7.245   1.698 -0.1948  0.4755 -0.0215
   17CHTO   C73 6911   5.266   7.257   1.843 -0.2586  0.0231  1.0446
   17CHTO  H145 6912   5.321   7.346   1.874 -0.5094  0.0441  1.4300
   17CHTO   C74 6913   5.344   7.134   1.900  0.8530 -0.0468 -0.2775
   17CHTO  H146 6914   5.442   7.148   1.851  0.7438  1.1888 -0.1602
   17CHTO   O54 6915   5.353   7.154   2.042 -0.0717 -0.2089 -0.4458
   17CHTO  H133 6916   5.424   7.212   2.060  2.0724 -2.9595  0.1592
   17CHTO   C75 6917   5.270   7.003   1.857  0.1042  0.0132 -0.6347
   17CHTO  H147 6918   5.278   6.999   1.748 -2.0872  1.3124 -0.8869
   17CHTO   N13 6919   5.329   6.875   1.907  0.3576  0.3650 -0.0903
   17CHTO  H139 6920   5.271   6.836   1.989 -1.2083  1.2137 -0.7662
   17CHTO  H140 6921   5.425   6.904   1.949 -1.6797  5.1698  1.5592
   17CHTO   C76 6922   5.122   7.011   1.885  0.1558  0.1531  0.2253
   17CHTO  H148 6923   5.090   6.989   1.987  0.6391  0.1205  0.3727
   17CHTO   O49 6924   5.056   7.138   1.853 -1.3010  0.3701 -0.5211
   17CHTO   C77 6925   5.127   7.251   1.905 -0.5874 -0.4258 -0.8584
   17CHTO  H149 6926   5.145   7.244   2.012 -0.2457  0.0127 -0.8855
   17CHTO   C88 6927   5.040   7.378   1.877  0.3069 -0.2542 -0.3836
   17CHTO   O58 6928   4.913   7.372   1.939  0.2039  0.3577 -0.4833
   17CHTO  H136 6929   4.906   7.436   2.008  1.2104 -0.0177 -0.0190
   17CHTO   O51 6930   5.047   6.916   1.795 -0.5754 -0.4261  0.5820
   17CHTO   C78 6931   4.911   6.871   1.850  0.0078 -0.1547  0.4146
   17CHTO  H150 6932   4.891   6.928   1.943  0.2770  0.4549  0.1008
   17CHTO   C80 6933   4.914   6.720   1.873  0.5923  0.0905  0.3279
   17CHTO  H152 6934   4.963   6.672   1.785  0.8925 -0.8316  0.9930
   17CHTO   O55 6935   4.992   6.706   1.993 -0.1139 -0.1922 -0.0916
   17CHTO  H134 6936   4.954   6.728   2.077 -1.5264 -2.7112 -0.0037
   17CHTO   C84 6937   4.772   6.656   1.896 -0.5445 -0.2982  0.1731
   17CHTO  H156 6938   4.734   6.682   1.995  1.1454  1.3241  0.4178
   17CHTO   N15 6939   4.790   6.510   1.893 -0.2576 -0.2724 -0.3267
   17CHTO  H143 6940   4.735   6.455   1.967  0.2033  0.5840  0.6598
   17CHTO  H144 6941   4.764   6.473   1.796 -0.6209 -0.0033 -0.3288
   17CHTO   C87 6942   4.681   6.703   1.780 -0.4022  0.0866  0.5088
   17CHTO  H159 6943   4.712   6.666   1.683 -0.9774  2.0964 -0.4616
   17CHTO   O53 6944   4.683   6.854   1.779 -0.2260 -0.1734  0.2365
   17CHTO   C82 6945   4.807   6.913   1.744  0.2906  0.4317  0.3328
   17CHTO  H154 6946   4.842   6.887   1.644  1.4887 -1.5783  1.2691
   17CHTO   C89 6947   4.776   7.062   1.740  0.3416 -0.2684  0.1825
   17CHTO   O59 6948   4.759   7.121   1.869 -0.2688 -0.3820  0.0506
   17CHTO  H137 6949   4.673   7.107   1.904  0.7733 -1.5961  2.2311
   17CHTO   O45 6950   4.524   6.644   1.790  0.3771 -0.6280  0.5854
   17CHTO   C67 6951   4.454   6.634   1.916  0.8284  0.1472  0.1306
   17CHTO  H124 6952   4.525   6.640   1.998  0.5391  0.0043  0.3910
   17CHTO   C65 6953   4.350   6.751   1.940  0.7576 -0.4348  0.0228
   17CHTO  H122 6954   4.395   6.848   1.918  2.4663 -1.7138 -2.4347
   17CHTO   O44 6955   4.321   6.745   2.084 -0.1883  0.1286 -0.5500
   17CHTO  H102 6956   4.294   6.660   2.111 -0.0547  0.7207  1.5413
   17CHTO   C63 6957   4.214   6.739   1.854  0.3323  0.0561  0.0560
   17CHTO  H120 6958   4.243   6.760   1.751  1.3790 -3.3176 -0.4204
   17CHTO   N11 6959   4.121   6.855   1.879 -0.1500 -0.4443 -0.1981
   17CHTO  H108 6960   4.111   6.878   1.983 -2.5266  0.6250 -0.6165
   17CHTO  H109 6961   4.022   6.830   1.845 -0.3153 -0.8934  0.5949
   17CHTO   C61 6962   4.156   6.593   1.866 -0.4907  0.3100 -0.0749
   17CHTO  H118 6963   4.081   6.589   1.785 -0.2974 -0.0622 -0.2383
   17CHTO   O40 6964   4.258   6.484   1.847  0.8488 -0.3673  0.4454
   17CHTO   C68 6965   4.382   6.491   1.907  0.2074  0.0814 -0.2605
   17CHTO  H125 6966   4.456   6.435   1.846  2.0253  3.2045 -1.0545
   17CHTO   C72 6967   4.365   6.404   2.036  0.3428 -0.3278 -0.5761
   17CHTO   O48 6968   4.483   6.389   2.120  0.4408  0.6187  0.0489
   17CHTO  H105 6969   4.533   6.324   2.075  0.4538  1.0102 -0.4951
   17CHTO   O38 6970   4.096   6.578   1.996 -0.0959 -0.3303  0.0977
   17CHTO   C55 6971   3.963   6.517   2.020  0.1811  0.1754 -0.1828
   17CHTO  H112 6972   3.929   6.535   2.123  0.5630 -2.0500  0.3660
   17CHTO   C56 6973   3.982   6.358   1.995 -0.1227  0.1640 -0.4372
   17CHTO  H113 6974   4.042   6.345   1.904  2.2200  1.2660  0.9162
   17CHTO   O42 6975   4.046   6.301   2.108 -0.4789  0.1888 -0.0031
   17CHTO  H100 6976   4.131   6.341   2.107 -1.1368  1.6265 -2.4873
   17CHTO   C57 6977   3.844   6.283   1.983  0.2661  0.5177  0.0846
   17CHTO  H114 6978   3.805   6.284   2.085  2.5854  2.4759  1.0126
   17CHTO   N10 6979   3.854   6.138   1.945 -0.0970  0.0312  0.0577
   17CHTO  H106 6980   3.951   6.100   1.972 -1.0168 -1.3293  1.5914
   17CHTO  H107 6981   3.783   6.078   2.001  0.1416 -0.6394 -0.3466
   17CHTO   C58 6982   3.747   6.360   1.896 -0.0650  0.1603 -0.3179
   17CHTO  H115 6983   3.788   6.369   1.793 -1.9370  0.3303 -1.0747
   17CHTO   O37 6984   3.733   6.495   1.949  0.7569 -0.0460 -0.3755
   17CHTO   C59 6985   3.849   6.570   1.932 -0.4235  0.4159 -0.5690
   17CHTO  H116 6986   3.875   6.549   1.828  1.0200  0.0973 -0.1549
   17CHTO   C70 6987   3.796   6.716   1.939 -0.6209 -0.1772  0.2713
   17CHTO   O46 6988   3.702   6.753   1.838  0.0136  0.5130  0.8305
   17CHTO  H103 6989   3.722   6.842   1.820 -1.3598  0.3724 -1.4962
   17CHTO   O39 6990   3.589   6.284   1.892 -0.0671 -0.0348 -0.3937
   17CHTO   C60 6991   3.481   6.377   1.908  0.4501  0.2769  0.6827
   17CHTO  H117 6992   3.495   6.442   1.995 -2.5088 -0.4609  1.7735
   17CHTO   C62 6993   3.458   6.468   1.780 -0.9491  0.5119 -0.3701
   17CHTO  H119 6994   3.556   6.517   1.765 -0.4241 -0.6042 -0.6401
   17CHTO   O43 6995   3.432   6.387   1.666 -0.2826 -0.0965 -0.0833
   17CHTO  H101 6996   3.501   6.377   1.603 -0.0012  0.9855  0.0465
   17CHTO   C66 6997   3.344   6.578   1.808 -0.0676  0.3059  0.6178
   17CHTO  H123 6998   3.376   6.641   1.892 -0.5943 -1.1012  1.9020
   17CHTO   N12 6999   3.327   6.669   1.699 -0.1758  0.2604  0.7528
   17CHTO  H110 7000   3.416   6.722   1.668 -0.7433  1.0516  0.4511
   17CHTO  H111 7001   3.236   6.725   1.712  1.2841  2.5481  1.4402
   17CHTO   C69 7002   3.211   6.511   1.857  0.0335  0.0858  0.0935
   17CHTO  H126 7003   3.151   6.472   1.772 -0.4177  2.4139 -0.6800
   17CHTO   O41 7004   3.240   6.399   1.967  0.0998  0.5964  0.1706
   17CHTO   C64 7005   3.350   6.296   1.930  0.1388  0.7590  0.4241
   17CHTO  H121 7006   3.319   6.252   1.833 -2.2126 -0.3052  1.6130
   17CHTO   C71 7007   3.367   6.191   2.026  0.1330  0.5355  0.2764
   17CHTO   O47 7008   3.251   6.115   2.062 -0.2871  0.4690 -0.8979
   17CHTO  H104 7009   3.213   6.094   1.979 -2.5590 -0.8344  0.3898
   17CHTO   O34 7010   3.116   6.619   1.934  0.1709  0.1619 -0.2063
   17CHTO   C49 7011   3.063   6.743   2.007  0.1991 -0.1399  0.1193
   17CHTO   H91 7012   3.071   6.823   1.933  1.0064 -0.4080 -0.0904
   17CHTO   C47 7013   3.158   6.776   2.125 -0.9058 -0.6431 -0.0709
   17CHTO   H89 7014   3.121   6.871   2.169  0.4227  0.9206 -2.2362
   17CHTO   O33 7015   3.293   6.800   2.078 -0.4468 -0.1578  0.1589
   17CHTO   H70 7016   3.309   6.891   2.093  0.6787  0.3092 -3.4366
   17CHTO   C45 7017   3.154   6.655   2.236  0.4633 -0.0822  0.4680
   17CHTO   H87 7018   3.230   6.577   2.217  0.3477  0.3772 -1.8939
   17CHTO    N8 7019   3.166   6.691   2.378 -0.0631 -0.0865  0.3252
   17CHTO   H75 7020   3.265   6.730   2.396  0.8183 -2.0073 -0.2170
   17CHTO   H76 7021   3.140   6.607   2.441 -3.8004  2.3781  2.1970
   17CHTO   C43 7022   3.018   6.568   2.215  0.6964 -0.9468  0.2840
   17CHTO   H85 7023   3.039   6.508   2.126 -0.2879  0.2255 -0.7794
   17CHTO   O29 7024   2.905   6.655   2.187  0.7222 -0.6007 -0.5146
   17CHTO   C50 7025   2.917   6.731   2.065 -0.8686  0.4568  0.0919
   17CHTO   H92 7026   2.858   6.682   1.986  0.7481 -0.0077 -0.8660
   17CHTO   C54 7027   2.856   6.868   2.083 -1.3516 -0.3137 -0.3108
   17CHTO   O36 7028   2.716   6.864   2.115 -0.0763  0.1451  0.1500
   17CHTO   H72 7029   2.673   6.948   2.115 -1.2196 -0.4282  1.8056
   17CHTO   O27 7030   2.999   6.462   2.315 -0.2978 -0.2262  0.0056
   17CHTO   C37 7031   2.946   6.329   2.308 -0.3580  0.4199  0.0794
   17CHTO   H79 7032   2.909   6.300   2.408 -0.3356 -3.4839 -0.9722
   17CHTO   C38 7033   2.834   6.322   2.205  0.2536  0.2722 -0.1392
   17CHTO   H80 7034   2.873   6.376   2.118  0.8335 -0.5597 -0.3957
   17CHTO   O31 7035   2.715   6.390   2.244 -0.5247  0.2270  0.7551
   17CHTO   H68 7036   2.739   6.481   2.252  1.1213 -0.1698  0.3974
   17CHTO   C39 7037   2.798   6.170   2.161  0.1055 -0.2089 -0.1138
   17CHTO   H81 7038   2.745   6.134   2.249 -1.4238 -0.9177 -1.3085
   17CHTO    N7 7039   2.702   6.156   2.047  0.4254  0.4071 -0.7147
   17CHTO   H73 7040   2.613   6.106   2.082  1.6947 -2.2043 -1.0791
   17CHTO   H74 7041   2.746   6.119   1.955  0.9476 -1.0255  0.1040
   17CHTO   C40 7042   2.932   6.084   2.145  0.3163 -0.9120  0.5276
   17CHTO   H82 7043   2.982   6.110   2.052 -0.3689 -2.0204 -0.1545
   17CHTO   O26 7044   3.014   6.102   2.261  0.3164  0.1970 -0.2030
   17CHTO   C41 7045   3.062   6.231   2.272 -0.2030 -0.7716  0.5334
   17CHTO   H83 7046   3.108   6.278   2.183 -0.6859 -0.4895  0.4309
   17CHTO   C52 7047   3.173   6.237   2.387  0.3665  0.0799  0.1553
   17CHTO   O35 7048   3.263   6.104   2.363  0.1131 -0.3310  0.0943
   17CHTO   H71 7049   3.355   6.110   2.383  0.8600  3.0393 -3.8373
   17CHTO   O28 7050   2.911   5.942   2.146  0.1452  0.2540 -0.4229
   17CHTO   C42 7051   2.995   5.846   2.080  0.7872  0.5953 -0.5664
   17CHTO   H84 7052   2.935   5.754   2.080  1.0777  0.3853  0.9682
   17CHTO   C44 7053   3.130   5.817   2.164  0.1256 -0.0892 -1.2694
   17CHTO   H86 7054   3.176   5.914   2.182 -3.3832  1.4059  0.2769
   17CHTO   O32 7055   3.088   5.751   2.284  0.4423  0.2302 -0.1499
   17CHTO   H69 7056   3.152   5.738   2.351 -0.6216 -0.3079  0.7895
   17CHTO   C48 7057   3.240   5.734   2.090 -0.2568  1.0183  0.1394
   17CHTO   H90 7058   3.199   5.633   2.090  0.8360  0.5362 -2.0989
   17CHTO    N9 7059   3.375   5.739   2.163 -0.2969 -0.8412  0.0171
   17CHTO   H77 7060   3.441   5.806   2.109 -0.9990  0.6679  1.0088
   17CHTO   H78 7061   3.435   5.650   2.174 -0.4438 -1.0605 -0.8634
   17CHTO   C51 7062   3.248   5.773   1.935  0.1158  0.4311  0.3780
   17CHTO   H93 7063   3.294   5.870   1.918  1.4596 -0.0940  0.9408
   17CHTO   O30 7064   3.114   5.769   1.891 -0.0288  0.1872 -0.1016
   17CHTO   C46 7065   3.038   5.876   1.930  0.1236 -0.5713 -0.4473
   17CHTO   H88 7066   3.098   5.966   1.917 -0.5063 -0.3037 -1.5622
   17CHTO   C53 7067   2.925   5.879   1.830 -0.3334  0.2054 -0.3239
   17CHTO   O72 7068   2.963   5.887   1.687  0.3041 -0.2498  0.1131
   17CHTO  H199 7069   2.970   5.801   1.652  0.2996  0.2045 -1.0269
   17CHTO   O22 7070   3.315   5.675   1.856 -0.3515  0.2242  0.2100
   17CHTO   C31 7071   3.402   5.726   1.742 -0.1471  0.0596 -0.1182
   17CHTO   H59 7072   3.441   5.636   1.690 -1.3743 -1.0105  0.7840
   17CHTO   C29 7073   3.321   5.806   1.636 -0.2824  0.3116 -0.3940
   17CHTO   H57 7074   3.295   5.905   1.676  1.3417  0.2082  1.0050
   17CHTO   O21 7075   3.200   5.740   1.612 -0.4824  0.5062 -0.2715
   17CHTO   H37 7076   3.211   5.674   1.546 -0.6798  1.1996 -1.0000
   17CHTO   C27 7077   3.423   5.817   1.512 -0.2561 -0.5162 -0.3609
   17CHTO   H55 7078   3.461   5.716   1.494  3.5590  0.4678  1.7463
   17CHTO    N5 7079   3.373   5.878   1.387  1.1542 -0.1243  0.5183
   17CHTO   H43 7080   3.284   5.829   1.350  1.0764  0.1719  0.3150
   17CHTO   H44 7081   3.455   5.880   1.316 -0.2612 -0.0636 -1.1354
   17CHTO   C25 7082   3.543   5.914   1.562  0.1739  0.2610 -0.0842
   17CHTO   H53 7083   3.491   6.002   1.602  0.2385  0.5894 -0.7086
   17CHTO   O17 7084   3.609   5.848   1.675  0.8883 -0.6615 -0.1789
   17CHTO   C32 7085   3.529   5.813   1.791  0.2371  0.1796  0.2064
   17CHTO   H60 7086   3.493   5.899   1.847 -0.6191  0.3881 -0.6496
   17CHTO   C36 7087   3.623   5.715   1.874 -0.2508 -0.3003  0.2205
   17CHTO   O25 7088   3.738   5.777   1.938  0.2516  0.3405 -0.6134
   17CHTO   H40 7089   3.721   5.868   1.956 -1.6045 -0.3355  1.3443
   17CHTO   O15 7090   3.668   5.945   1.458 -0.8145  0.2389 -0.2876
   17CHTO   C19 7091   3.720   6.080   1.420  0.3942  0.0152  0.1939
   17CHTO   H47 7092   3.790   6.056   1.338 -0.0634 -0.3311 -0.1000
   17CHTO   C20 7093   3.603   6.172   1.370 -0.6914  0.1653  0.5348
   17CHTO   H48 7094   3.519   6.171   1.441 -1.0210 -0.7661  0.1380
   17CHTO   O19 7095   3.552   6.105   1.250  0.6096  0.1194  0.4393
   17CHTO   H35 7096   3.495   6.166   1.207  0.9516 -0.1521 -0.4034
   17CHTO   C21 7097   3.651   6.319   1.330  0.4409 -0.4519  0.1258
   17CHTO   H49 7098   3.715   6.316   1.242  0.4743  1.5994  0.0533
   17CHTO    N4 7099   3.535   6.411   1.306 -0.2869  0.2495  0.1165
   17CHTO   H41 7100   3.517   6.428   1.201  1.1301 -1.7812 -0.4889
   17CHTO   H42 7101   3.552   6.508   1.350 -1.7066  0.8042 -0.5323
   17CHTO   C22 7102   3.751   6.362   1.441  0.4105 -0.2040 -0.8263
   17CHTO   H50 7103   3.702   6.388   1.534 -2.5220 -1.6887 -1.9005
   17CHTO   O14 7104   3.861   6.276   1.477 -0.4868 -0.1763  0.3343
   17CHTO   C23 7105   3.807   6.149   1.529  0.1458 -0.2917  0.0577
   17CHTO   H51 7106   3.750   6.172   1.620 -0.8975  1.3548 -0.9807
   17CHTO   C34 7107   3.919   6.064   1.578  0.8501 -0.2300 -0.2101
   17CHTO   O23 7108   3.882   5.952   1.659 -0.8174  0.3857 -0.0402
   17CHTO   H38 7109   3.958   5.903   1.685 -3.0221 -2.5605  1.1189
   17CHTO   O16 7110   3.825   6.470   1.381 -0.2691 -0.4941 -0.1419
   17CHTO   C24 7111   3.885   6.567   1.497 -0.1781 -0.1003 -0.4856
   17CHTO   H52 7112   3.890   6.516   1.593  1.8893 -0.3211 -0.6853
   17CHTO   C26 7113   3.796   6.691   1.499  0.0638 -0.2553  0.4004
   17CHTO   H54 7114   3.771   6.718   1.394 -0.8577 -0.5945  0.5320
   17CHTO   O20 7115   3.678   6.658   1.571  0.4467 -0.3737 -0.0348
   17CHTO   H36 7116   3.617   6.729   1.580  0.6530 -0.1491 -0.3742
   17CHTO   C30 7117   3.865   6.808   1.572 -0.1612 -0.6224  0.2281
   17CHTO   H58 7118   3.892   6.786   1.676 -1.9843 -0.9416  0.6507
   17CHTO    N6 7119   3.775   6.931   1.575 -0.7185  0.0835  0.1198
   17CHTO   H45 7120   3.773   6.984   1.669 -1.1827  0.4749 -0.1017
   17CHTO   H46 7121   3.797   7.001   1.495 -1.6772 -1.9850 -2.0290
   17CHTO   C33 7122   4.004   6.838   1.508  0.1916  0.1119 -0.3686
   17CHTO   H61 7123   3.988   6.872   1.405 -1.0524 -0.5583 -0.4028
   17CHTO   O18 7124   4.082   6.717   1.507  0.4842 -0.0257 -0.5238
   17CHTO   C28 7125   4.029   6.591   1.459  0.2044  0.0612  0.7249
   17CHTO   H56 7126   4.036   6.596   1.350 -2.2686 -1.6454  0.4599
   17CHTO   C35 7127   4.133   6.481   1.496  0.2932 -0.6668  0.4842
   17CHTO   O24 7128   4.117   6.369   1.407 -0.1911  0.1866 -0.0044
   17CHTO   H39 7129   4.123   6.289   1.457  2.0525  0.5249  0.3025
   17CHTO    O9 7130   4.078   6.941   1.568 -0.3965  0.5407 -0.4515
   17CHTO   C13 7131   4.166   7.014   1.478 -0.0798 -0.0887  0.6620
   17CHTO   H26 7132   4.137   7.002   1.372  1.3850  0.4079  0.1982
   17CHTO   C11 7133   4.317   6.970   1.500  0.5575 -0.2673  0.2138
   17CHTO   H24 7134   4.333   6.864   1.474  2.7063 -0.0631  0.6047
   17CHTO    O8 7135   4.341   6.978   1.645 -0.0649  0.1046 -0.6221
   17CHTO    H3 7136   4.313   6.899   1.688  2.4349 -0.3878  0.1671
   17CHTO    C9 7137   4.410   7.063   1.415 -0.2194  0.0971 -0.5229
   17CHTO   H22 7138   4.370   7.060   1.313  0.9775 -0.8463 -0.9826
   17CHTO    N2 7139   4.552   7.014   1.395  0.1431 -0.1316 -0.1319
   17CHTO   H10 7140   4.591   7.005   1.495 -1.7106  0.5392  0.6788
   17CHTO   H11 7141   4.555   6.920   1.342  3.5555  0.7836 -1.6564
   17CHTO    C7 7142   4.403   7.211   1.474  0.5744 -0.3199  0.6557
   17CHTO   H20 7143   4.455   7.267   1.394  1.5655 -2.5897 -0.3216
   17CHTO    O4 7144   4.262   7.257   1.478  0.0696 -0.0868 -0.8331
   17CHTO   C14 7145   4.148   7.177   1.504  0.5023  0.5974  0.0213
   17CHTO   H27 7146   4.060   7.207   1.442 -1.0023 -2.0235  0.7820
   17CHTO   C18 7147   4.117   7.218   1.655  1.0121  0.0856  0.2452
   17CHTO   O13 7148   3.980   7.191   1.684 -0.4940 -0.0896  0.7181
   17CHTO    H7 7149   3.952   7.214   1.770 -0.4090  0.3200  0.6392
   17CHTO    O2 7150   4.488   7.224   1.628 -0.2643  0.4110 -0.2213
   17CHTO    C1 7151   4.521   7.360   1.664  0.1869  0.3086  0.5574
   17CHTO   H14 7152   4.439   7.421   1.620 -2.5809 -1.7997  2.6211
   17CHTO    C2 7153   4.657   7.416   1.611  0.2373 -0.1587  0.5714
   17CHTO   H15 7154   4.733   7.345   1.647 -0.3787 -0.9408  0.3556
   17CHTO    O6 7155   4.657   7.416   1.469 -0.2267  0.0672 -0.2121
   17CHTO    H1 7156   4.587   7.473   1.444 -0.1835  0.1654 -0.1138
   17CHTO    C3 7157   4.692   7.563   1.660 -0.6682 -0.1510 -0.2044
   17CHTO   H16 7158   4.644   7.632   1.590  1.2226  3.0419  1.5588
   17CHTO    N1 7159   4.833   7.599   1.646  0.5002  0.1506 -0.2547
   17CHTO    H8 7160   4.885   7.523   1.590  0.2074 -0.2971  0.0740
   17CHTO    H9 7161   4.855   7.703   1.627  1.3399  0.3939  1.8267
   17CHTO    C4 7162   4.637   7.595   1.804 -0.2250 -0.0681  0.2136
   17CHTO   H17 7163   4.704   7.561   1.882 -1.1436 -0.7552  0.7177
   17CHTO    O1 7164   4.512   7.528   1.822 -0.2222  0.9812  0.3931
   17CHTO    C5 7165   4.513   7.390   1.809  0.0749 -0.1114  0.0780
   17CHTO   H18 7166   4.596   7.349   1.867 -0.3269  1.8198  2.1060
   17CHTO   C16 7167   4.383   7.334   1.873 -0.2727  0.3254  0.1299
   17CHTO   O11 7168   4.366   7.188   1.886  0.6750 -0.6044 -0.1381
   17CHTO    H5 7169   4.286   7.173   1.840  0.7508  0.8029 -0.7657
   17CHTO    O3 7170   4.613   7.736   1.827  0.1017 -0.4415 -0.5524
   17CHTO    C6 7171   4.622   7.789   1.961 -0.2813 -0.3425 -0.0752
   17CHTO   H19 7172   4.554   7.874   1.974 -2.3292 -2.0386  0.5754
   17CHTO    C8 7173   4.575   7.696   2.081 -0.3115 -0.4524 -0.5227
   17CHTO   H21 7174   4.633   7.604   2.082 -0.2347 -0.4037 -0.0691
   17CHTO    O7 7175   4.435   7.669   2.047  0.6523 -0.0962  0.0828
   17CHTO    H2 7176   4.392   7.627   2.119  0.1838 -0.2912 -0.3060
   17CHTO   C12 7177   4.592   7.769   2.220 -1.5277 -0.6700  0.0912
   17CHTO   H25 7178   4.530   7.861   2.224 -1.2060 -0.3341 -2.2106
   17CHTO    N3 7179   4.549   7.678   2.334 -0.0658  0.4469 -0.1671
   17CHTO   H12 7180   4.545   7.727   2.431 -1.5244 -0.2733  0.1570
   17CHTO   H13 7181   4.459   7.620   2.320  0.7480 -1.1941  1.1964
   17CHTO   C15 7182   4.743   7.824   2.229 -0.1113  0.4408  0.4780
   17CHTO   H28 7183   4.812   7.743   2.253 -0.8947 -0.3436  0.1193
   17CHTO   O10 7184   4.761   7.929   2.338 -0.3090 -0.2895 -0.1512
   17CHTO    H4 7185   4.821   7.903   2.406 -1.9269  2.1858  2.2839
   17CHTO    O5 7186   4.781   7.902   2.112 -0.3993 -0.3892 -0.3511
   17CHTO   C10 7187   4.767   7.841   1.984  0.0801 -0.6600 -0.3192
   17CHTO   H23 7188   4.842   7.763   1.972  0.7776 -0.0595  0.1009
   17CHTO   C17 7189   4.810   7.941   1.871  0.2922 -0.3237  0.4846
   17CHTO   O12 7190   4.745   8.072   1.879  0.3954  0.6690 -0.3386
   17CHTO    H6 7191   4.777   8.121   1.952 -0.1593 -0.9198  1.0026
   18CHTO  H203 7192   6.062   7.941   2.326 -1.2421 -0.6092 -0.2958
   18CHTO   O82 7193   6.067   7.847   2.327  0.0853 -0.5438 -0.0426
   18CHTO  C123 7194   6.047   7.786   2.197  0.1048  0.7921 -0.5894
   18CHTO  H227 7195   5.948   7.813   2.157 -0.1888  0.7599  0.1166
   18CHTO   O77 7196   6.164   7.831   2.120 -0.5031  0.4244 -0.4162
   18CHTO  C118 7197   6.142   7.797   1.983 -0.1539  0.4094 -0.1687
   18CHTO  H222 7198   6.041   7.837   1.965  0.3119  1.8963  0.4066
   18CHTO  C125 7199   6.251   7.886   1.904 -0.1562 -0.1638  0.0501
   18CHTO   O84 7200   6.234   8.025   1.935 -0.1295 -0.3715  0.4714
   18CHTO  H205 7201   6.312   8.055   1.977  0.7419 -0.3425 -1.1282
   18CHTO  C114 7202   6.152   7.643   1.966  0.6727 -0.6197 -0.0461
   18CHTO  H218 7203   6.254   7.616   1.994  1.7487  1.7620 -1.5721
   18CHTO  C116 7204   6.066   7.566   2.072  0.3259  0.0159  0.3350
   18CHTO  H220 7205   5.964   7.562   2.028  0.7312  0.9528 -0.7144
   18CHTO   O79 7206   6.109   7.429   2.071 -0.6904  0.5416 -0.2668
   18CHTO  H201 7207   6.118   7.396   2.158  2.4250  1.3186 -0.2384
   18CHTO  C120 7208   6.061   7.628   2.212 -0.7643 -0.6727 -1.1180
   18CHTO  H224 7209   6.160   7.609   2.258 -2.0645  0.5615  2.4015
   18CHTO   N21 7210   5.960   7.565   2.299  0.5714 -0.1432  0.0181
   18CHTO  H211 7211   5.867   7.618   2.296 -1.4920 -3.4090  2.4373
   18CHTO  H212 7212   5.991   7.575   2.402 -1.4997 -1.5462  0.8145
   18CHTO   O75 7213   6.106   7.614   1.833 -0.0475 -0.1015 -0.5071
   18CHTO  C112 7214   6.221   7.566   1.696  0.1606  0.7323 -0.4603
   18CHTO  H216 7215   6.300   7.500   1.735  1.1804  2.0252 -0.3196
   18CHTO   O73 7216   6.277   7.687   1.639 -0.3850 -0.0286 -0.0602
   18CHTO  C113 7217   6.389   7.651   1.552 -0.1911 -0.5859 -0.6403
   18CHTO  H217 7218   6.459   7.586   1.609  0.2227  0.0869 -0.3741
   18CHTO  C124 7219   6.468   7.771   1.521 -0.0855 -0.6349 -0.4934
   18CHTO   O83 7220   6.517   7.855   1.629  0.3015 -0.4002 -0.4449
   18CHTO  H204 7221   6.568   7.927   1.598 -1.1647  0.4728 -0.8985
   18CHTO  C109 7222   6.327   7.592   1.422  0.3505 -0.0135 -0.0541
   18CHTO  H213 7223   6.267   7.675   1.382  0.3631 -0.0975 -0.2461
   18CHTO  C110 7224   6.238   7.466   1.454 -0.0025 -0.3698  0.0744
   18CHTO  H214 7225   6.305   7.381   1.462  0.7395  0.0036 -1.9659
   18CHTO   O78 7226   6.156   7.440   1.341  0.2324 -0.2589 -0.1154
   18CHTO  H200 7227   6.107   7.361   1.354 -0.5658  0.0852 -0.9567
   18CHTO  C111 7228   6.146   7.494   1.580  0.1353 -0.4764  0.0913
   18CHTO  H215 7229   6.060   7.555   1.548 -1.2729 -0.8852  2.9759
   18CHTO   N19 7230   6.088   7.366   1.635 -0.0726  0.0097  1.2882
   18CHTO  H207 7231   5.980   7.375   1.628 -0.0114 -0.2218  0.0489
   18CHTO  H208 7232   6.104   7.363   1.742  0.7316  1.1089  1.2048
   18CHTO   O74 7233   6.423   7.570   1.315 -0.0328 -0.1458 -0.3537
   18CHTO  C115 7234   6.356   7.579   1.161 -0.8299  0.0742 -0.6831
   18CHTO  H219 7235   6.290   7.494   1.141 -1.5361  0.5667 -0.4705
   18CHTO   O76 7236   6.262   7.707   1.145 -0.4874  0.7162 -0.0791
   18CHTO  C122 7237   6.340   7.824   1.155 -0.4564 -0.3178 -0.0740
   18CHTO  H226 7238   6.394   7.820   1.249 -1.1659  2.6062  0.4895
   18CHTO  C126 7239   6.251   7.949   1.175 -0.6316  0.7851  0.0523
   18CHTO   O85 7240   6.205   7.969   1.310 -0.0501 -0.3693  0.0910
   18CHTO  H206 7241   6.274   7.983   1.371  0.6619 -3.4137  0.0824
   18CHTO  C121 7242   6.442   7.837   1.037 -0.0673  0.3848 -0.1702
   18CHTO  H225 7243   6.417   7.913   0.960 -2.1235  0.9303  1.0041
   18CHTO   O81 7244   6.570   7.881   1.097  0.2490  0.4196  0.0829
   18CHTO  H202 7245   6.563   7.971   1.123 -1.5533  0.3761 -0.1605
   18CHTO  C119 7246   6.459   7.698   0.963  0.3348 -1.1180 -0.4773
   18CHTO  H223 7247   6.365   7.689   0.907  1.0511 -0.2402 -1.8402
   18CHTO  C117 7248   6.468   7.580   1.060  0.0615 -0.4492  0.3511
   18CHTO  H221 7249   6.556   7.578   1.124 -0.1328 -0.8180  0.6025
   18CHTO   N20 7250   6.487   7.452   0.980  0.2457  0.5514  0.0202
   18CHTO  H209 7251   6.567   7.392   1.019  1.2324  1.1338 -1.0731
   18CHTO  H210 7252   6.396   7.396   0.960 -0.4129  0.9430  1.8244
   18CHTO   O80 7253   6.570   7.709   0.845  0.5004 -0.0026  0.2398
   18CHTO  C103 7254   6.530   7.681   0.691 -0.7364 -0.4879 -0.5013
   18CHTO  H190 7255   6.622   7.683   0.633 -0.8203  0.8849 -0.5862
   18CHTO  C101 7256   6.450   7.549   0.643  0.0655  0.8505 -0.0638
   18CHTO  H188 7257   6.369   7.533   0.714  1.2855  0.8045  1.3380
   18CHTO   O68 7258   6.575   7.410   0.643  0.1907 -0.1716 -0.5242
   18CHTO  H168 7259   6.629   7.421   0.566 -0.4508 -1.0212 -1.0990
   18CHTO   C99 7260   6.370   7.570   0.502 -0.2623 -0.2894  0.4839
   18CHTO  H186 7261   6.444   7.582   0.421  1.3930  2.4420  2.3097
   18CHTO   N17 7262   6.283   7.456   0.463  0.7068  0.2817 -0.1990
   18CHTO  H174 7263   6.353   7.379   0.435  0.2958 -1.0843  2.3940
   18CHTO  H175 7264   6.217   7.428   0.544 -0.8131  0.9683 -1.1847
   18CHTO   C97 7265   6.294   7.697   0.518 -1.0271  0.4225 -0.1576
   18CHTO  H184 7266   6.234   7.691   0.610 -0.0501  1.7561  0.5817
   18CHTO   O64 7267   6.389   7.807   0.525 -0.0489  0.0118  0.9754
   18CHTO  C104 7268   6.447   7.810   0.659 -0.3014  0.0992  0.2024
   18CHTO  H191 7269   6.368   7.821   0.734 -0.0090  0.4869  0.4477
   18CHTO  C108 7270   6.545   7.936   0.665  0.4069 -0.2689 -0.5899
   18CHTO   O71 7271   6.643   7.935   0.563  0.6634 -0.4191 -0.7281
   18CHTO  H171 7272   6.604   7.902   0.484  0.5860 -2.5221  0.1664
   18CHTO   O62 7273   6.216   7.741   0.410  0.1268  0.2966  0.3854
   18CHTO   C91 7274   6.096   7.818   0.452 -0.0185  0.2874 -0.6231
   18CHTO  H178 7275   6.109   7.850   0.556  0.2522  0.2566 -0.6471
   18CHTO   C92 7276   5.964   7.728   0.441 -0.6775 -0.1514  0.1468
   18CHTO  H179 7277   5.953   7.698   0.336 -0.9324 -0.2476  0.2006
   18CHTO   O66 7278   5.990   7.599   0.502 -0.2917 -0.2615 -0.7758
   18CHTO  H166 7279   5.985   7.617   0.594 -1.6909 -1.5892 -0.5786
   18CHTO   C93 7280   5.831   7.798   0.494 -0.3353 -0.0116 -0.0499
   18CHTO  H180 7281   5.832   7.788   0.603  2.2728  2.6003  0.2292
   18CHTO   N16 7282   5.715   7.733   0.440 -0.3296 -0.3726 -0.1078
   18CHTO  H172 7283   5.708   7.628   0.467  1.3121 -0.9916 -1.9798
   18CHTO  H173 7284   5.721   7.740   0.333  1.4570 -1.4575 -0.1037
   18CHTO   C94 7285   5.827   7.953   0.455 -0.1992  0.1220  0.5855
   18CHTO  H181 7286   5.792   7.969   0.353  2.0117  1.2681 -0.0315
   18CHTO   O61 7287   5.958   8.014   0.457 -0.1931 -0.1778  0.0772
   18CHTO   C95 7288   6.069   7.954   0.384  0.4975 -0.0192 -0.1085
   18CHTO  H182 7289   6.031   7.923   0.287 -3.3522 -0.2751  1.3900
   18CHTO  C106 7290   6.185   8.046   0.378  0.0384  0.3624  0.1921
   18CHTO   O69 7291   6.161   8.151   0.287 -0.5697  0.0580 -0.4599
   18CHTO  H169 7292   6.176   8.138   0.195  0.4957  1.5060 -0.5247
   18CHTO   O63 7293   5.729   8.019   0.553 -0.3643  0.1617 -0.0103
   18CHTO   C96 7294   5.604   8.103   0.492  0.7773  0.1065  0.1958
   18CHTO  H183 7295   5.577   8.063   0.394  0.2672 -1.2815  0.8962
   18CHTO   C98 7296   5.636   8.252   0.486 -0.7326  0.1259 -0.3168
   18CHTO  H185 7297   5.652   8.293   0.587  0.3890  0.3852 -0.5936
   18CHTO   O67 7298   5.769   8.258   0.419 -0.0896 -0.2081  0.9008
   18CHTO  H167 7299   5.840   8.222   0.470 -0.5694 -0.7438  1.1875
   18CHTO  C102 7300   5.513   8.325   0.415 -0.1143 -0.2813 -0.1501
   18CHTO  H189 7301   5.508   8.280   0.314  0.2840 -2.3061  0.7190
   18CHTO   N18 7302   5.539   8.472   0.393 -0.1854  0.0776 -0.3659
   18CHTO  H176 7303   5.605   8.494   0.310 -0.3755  0.0398 -0.5289
   18CHTO  H177 7304   5.590   8.502   0.483 -2.1906  0.4223  0.6672
   18CHTO  C105 7305   5.380   8.298   0.489  0.4783  0.2826  0.7006
   18CHTO  H192 7306   5.362   8.368   0.571 -0.0069  2.3207 -1.0897
   18CHTO   O65 7307   5.367   8.166   0.537 -0.6170  0.2688 -0.3354
   18CHTO  C100 7308   5.480   8.094   0.592 -0.3341 -0.2399 -0.6804
   18CHTO  H187 7309   5.502   8.140   0.689 -1.8700  0.7148 -0.7564
   18CHTO  C107 7310   5.438   7.947   0.620 -0.7044 -0.1879 -0.1063
   18CHTO   O70 7311   5.413   7.876   0.504 -0.1183  0.0283 -0.7286
   18CHTO  H170 7312   5.436   7.929   0.429  2.0904  1.6690  0.9981
   18CHTO   O57 7313   5.272   8.320   0.371 -0.1214 -0.3541  0.4114
   18CHTO   C85 7314   5.134   8.292   0.381 -0.0393 -1.0268 -0.0636
   18CHTO  H157 7315   5.093   8.344   0.293  1.3621  0.3318  0.0629
   18CHTO   C83 7316   5.068   8.368   0.505 -0.2226  0.7504 -0.0380
   18CHTO  H155 7317   5.085   8.475   0.501 -4.1109  1.4620  0.3375
   18CHTO   O56 7318   5.135   8.322   0.627  0.0385  0.2710  0.2403
   18CHTO  H135 7319   5.092   8.369   0.696 -0.7656  1.7152 -1.2036
   18CHTO   C81 7320   4.916   8.341   0.515 -0.3771 -0.1933 -0.5826
   18CHTO  H153 7321   4.870   8.376   0.423  0.7286 -0.4904 -1.2656
   18CHTO   N14 7322   4.850   8.417   0.627  0.0267  0.3750 -0.6031
   18CHTO  H141 7323   4.820   8.344   0.700 -0.7075 -1.6368 -2.8280
   18CHTO  H142 7324   4.760   8.463   0.593 -0.2919  2.0705  2.4219
   18CHTO   C79 7325   4.889   8.184   0.523 -0.0795 -0.3348 -0.8191
   18CHTO  H151 7326   4.782   8.168   0.512 -0.3588  0.0500  1.1446
   18CHTO   O52 7327   4.951   8.112   0.412  0.3892  0.3619  0.2064
   18CHTO   C86 7328   5.089   8.137   0.386  0.2467 -0.2867 -0.6732
   18CHTO  H158 7329   5.141   8.091   0.472  1.2530  0.3329 -0.9421
   18CHTO   C90 7330   5.143   8.071   0.258 -0.0254  0.3192  0.3228
   18CHTO   O60 7331   5.054   8.076   0.146 -0.1259 -0.6024 -0.1353
   18CHTO  H138 7332   5.027   8.163   0.125 -1.8275 -1.1492 -0.3332
   18CHTO   O50 7333   4.941   8.126   0.649 -0.1811  0.2694  0.2678
   18CHTO   C73 7334   4.941   7.998   0.715  0.1427  0.0994 -0.1424
   18CHTO  H145 7335   5.022   7.939   0.669  1.4455  1.1571  0.7544
   18CHTO   C74 7336   4.803   7.925   0.705  0.8114 -0.1101 -0.2114
   18CHTO  H146 7337   4.777   7.921   0.599  0.5937 -0.1599 -0.1572
   18CHTO   O54 7338   4.808   7.778   0.735 -0.3571  0.0826 -0.0952
   18CHTO  H133 7339   4.864   7.739   0.670 -0.7232 -0.4561 -0.0865
   18CHTO   C75 7340   4.693   8.008   0.789 -0.3334  0.1936 -1.3012
   18CHTO  H147 7341   4.683   8.104   0.737 -0.1209  1.1076  0.2931
   18CHTO   N13 7342   4.559   7.941   0.792 -0.5413  0.2026  0.1680
   18CHTO  H139 7343   4.491   8.019   0.822  2.1470  1.9592  1.8805
   18CHTO  H140 7344   4.563   7.858   0.861 -2.5357 -2.1060 -2.3477
   18CHTO   C76 7345   4.751   8.030   0.939  0.5875  0.3692 -1.2839
   18CHTO  H148 7346   4.770   7.932   0.984  0.3018  1.4301  1.1661
   18CHTO   O49 7347   4.888   8.088   0.939 -0.1474 -0.2817 -0.0840
   18CHTO   C77 7348   4.986   8.020   0.859 -1.0907  0.6491 -0.1132
   18CHTO  H149 7349   5.007   7.920   0.897 -2.2982  0.4466  0.0588
   18CHTO   C88 7350   5.122   8.097   0.879 -0.1694  0.6791 -0.9111
   18CHTO   O58 7351   5.167   8.072   1.007 -0.4886 -0.2193 -0.5482
   18CHTO  H136 7352   5.259   8.087   1.010 -0.6513  0.5811  0.6890
   18CHTO   O51 7353   4.654   8.116   1.028 -0.0573 -0.6097  0.6146
   18CHTO   C78 7354   4.710   8.131   1.173 -0.0332 -0.2538  0.1764
   18CHTO  H150 7355   4.818   8.107   1.180  0.1574  0.7361  0.6819
   18CHTO   C80 7356   4.633   8.050   1.290  0.0143 -0.1461  0.6995
   18CHTO  H152 7357   4.525   8.074   1.282  0.8056  2.7344 -3.0708
   18CHTO   O55 7358   4.645   7.913   1.258  0.4297  0.8256 -0.3475
   18CHTO  H134 7359   4.592   7.894   1.184  1.9926  0.8278 -1.4886
   18CHTO   C84 7360   4.695   8.070   1.439  0.6467 -0.2702 -0.5590
   18CHTO  H156 7361   4.773   7.995   1.451  0.6858 -0.0333  0.6764
   18CHTO   N15 7362   4.591   8.040   1.534  1.1228  0.2023  0.8085
   18CHTO  H143 7363   4.638   8.057   1.629  0.7119  0.6591  0.9289
   18CHTO  H144 7364   4.508   8.106   1.526  1.0885 -0.2748 -3.8955
   18CHTO   C87 7365   4.757   8.212   1.469 -0.3861  0.1213  0.3091
   18CHTO  H159 7366   4.686   8.275   1.522 -1.1273 -1.5053  1.2894
   18CHTO   O53 7367   4.791   8.309   1.312 -0.0234  0.1229 -0.1484
   18CHTO   C82 7368   4.703   8.280   1.205  0.5116  0.0117 -0.3612
   18CHTO  H154 7369   4.602   8.312   1.232  0.7098  1.2276 -1.0501
   18CHTO   C89 7370   4.747   8.365   1.083 -0.0971  0.0085  0.1303
   18CHTO   O59 7371   4.884   8.336   1.031  0.5825 -0.1618 -0.3742
   18CHTO  H137 7372   4.906   8.387   0.955  2.3259 -0.1410  0.1419
   18CHTO   O45 7373   4.889   8.199   1.562 -0.3182  0.3457 -0.3636
   18CHTO   C67 7374   5.009   8.165   1.493 -0.2915  0.7315 -0.9278
   18CHTO  H124 7375   4.992   8.081   1.426  1.7331 -1.9447  1.7402
   18CHTO   C65 7376   5.069   8.290   1.415  0.1438 -0.1324 -0.3259
   18CHTO  H122 7377   4.995   8.370   1.409 -1.4964 -1.4097  2.0269
   18CHTO   O44 7378   5.095   8.264   1.276  0.1081 -0.4484  0.1620
   18CHTO  H102 7379   5.170   8.209   1.263  1.7064  1.5210  0.9116
   18CHTO   C63 7380   5.189   8.353   1.493 -0.5417  0.8396  0.3093
   18CHTO  H120 7381   5.160   8.368   1.597 -2.2268  1.7148 -0.2811
   18CHTO   N11 7382   5.230   8.495   1.447  0.3019 -0.2350 -0.4036
   18CHTO  H108 7383   5.185   8.560   1.519  1.1656  0.4342 -0.4682
   18CHTO  H109 7384   5.202   8.519   1.347  0.4626  0.8020 -0.2025
   18CHTO   C61 7385   5.300   8.248   1.501 -0.1502  0.1199 -0.4974
   18CHTO  H118 7386   5.365   8.286   1.581 -1.2513  2.1532 -0.5473
   18CHTO   O40 7387   5.259   8.109   1.542  0.3385  0.0084 -0.7934
   18CHTO   C68 7388   5.117   8.103   1.587  0.5825 -0.7122  0.2320
   18CHTO  H125 7389   5.119   8.153   1.687  0.4009 -2.0881  0.9392
   18CHTO   C72 7390   5.098   7.957   1.615  0.3600 -0.1385  0.1011
   18CHTO   O48 7391   5.097   7.885   1.490 -0.7669  0.8061  0.2041
   18CHTO  H105 7392   5.023   7.911   1.438 -0.5608 -0.3447 -0.6771
   18CHTO   O38 7393   5.364   8.237   1.377 -0.3369 -0.1719  0.5470
   18CHTO   C55 7394   5.502   8.186   1.387  0.3093  0.0168  0.0911
   18CHTO  H112 7395   5.519   8.132   1.481 -1.5476  0.0295  0.4452
   18CHTO   C56 7396   5.605   8.308   1.371  0.2764  0.2016 -0.5937
   18CHTO  H113 7397   5.579   8.349   1.272  2.0995 -1.3190 -1.7243
   18CHTO   O42 7398   5.574   8.424   1.464 -0.7910  0.3262 -0.0591
   18CHTO  H100 7399   5.608   8.506   1.434  0.5357 -0.2731 -0.2693
   18CHTO   C57 7400   5.759   8.262   1.370  0.3560 -0.1810  0.1689
   18CHTO  H114 7401   5.790   8.239   1.472 -0.5858  1.9002  0.9367
   18CHTO   N10 7402   5.857   8.370   1.327 -0.5028 -0.7896 -0.1930
   18CHTO  H106 7403   5.945   8.351   1.386 -0.0944  0.5057 -0.3518
   18CHTO  H107 7404   5.877   8.368   1.221 -1.7201  1.7719 -0.5311
   18CHTO   C58 7405   5.784   8.139   1.284  0.7018  0.0527  0.3685
   18CHTO  H115 7406   5.801   8.174   1.180 -1.2664 -1.3240 -0.4632
   18CHTO   O37 7407   5.667   8.049   1.278 -0.0702  0.1861 -0.1088
   18CHTO   C59 7408   5.532   8.083   1.274 -0.2053 -0.3120 -0.2894
   18CHTO  H116 7409   5.501   8.135   1.183  0.2356  2.0016  0.8418
   18CHTO   C70 7410   5.447   7.954   1.283 -0.0333 -0.5662 -0.0275
   18CHTO   O46 7411   5.308   7.986   1.270  0.3466 -0.0270 -0.5003
   18CHTO  H103 7412   5.254   7.910   1.260 -0.1373  0.1622  0.6241
   18CHTO   O39 7413   5.901   8.039   1.343 -0.3432  0.3322 -0.5818
   18CHTO   C60 7414   5.866   7.974   1.472  0.2202  0.3103  0.3905
   18CHTO  H117 7415   5.789   8.029   1.527 -1.2167 -1.0429 -0.2205
   18CHTO   C62 7416   5.818   7.825   1.430 -0.8448 -0.1601 -0.7452
   18CHTO  H119 7417   5.742   7.835   1.350 -2.2558 -1.4777  0.4009
   18CHTO   O43 7418   5.923   7.752   1.362  0.3763  0.4098  0.4059
   18CHTO  H101 7419   5.992   7.808   1.335 -0.8516  0.5532 -2.6976
   18CHTO   C66 7420   5.756   7.751   1.561 -0.2881 -0.6932  0.6915
   18CHTO  H123 7421   5.681   7.815   1.607  1.4614  2.1680 -0.3032
   18CHTO   N12 7422   5.688   7.624   1.527  0.1112 -0.0245 -0.1148
   18CHTO  H110 7423   5.744   7.553   1.468 -0.2008  0.2394 -0.7213
   18CHTO  H111 7424   5.593   7.650   1.484 -0.4844 -0.6490  0.8066
   18CHTO   C69 7425   5.858   7.739   1.674 -0.1768  0.2163 -0.8543
   18CHTO  H126 7426   5.937   7.663   1.658 -0.0349  0.2129 -0.1729
   18CHTO   O41 7427   5.943   7.884   1.697 -0.6742  0.1902 -0.2703
   18CHTO   C64 7428   5.985   7.957   1.566  0.1438 -0.0218  0.6740
   18CHTO  H121 7429   6.057   7.890   1.514 -1.1975 -2.5691  1.9538
   18CHTO   C71 7430   6.052   8.094   1.599  0.3135  0.6374  0.5442
   18CHTO   O47 7431   5.945   8.182   1.647 -0.0870  0.1470  0.0612
   18CHTO  H104 7432   5.980   8.258   1.691  1.3607 -0.4229 -0.1052
   18CHTO   O34 7433   5.776   7.689   1.813  0.0996  0.3323  0.9098
   18CHTO   C49 7434   5.711   7.786   1.939 -0.5233  0.9902  0.1228
   18CHTO   H91 7435   5.774   7.759   2.023  0.6536 -1.3682 -1.4681
   18CHTO   C47 7436   5.565   7.739   1.960 -0.3469 -0.3809  0.3609
   18CHTO   H89 7437   5.518   7.786   2.049  0.9800 -0.8710  1.3485
   18CHTO   O33 7438   5.567   7.595   1.988 -0.1106  0.2731  0.4986
   18CHTO   H70 7439   5.641   7.569   2.040 -0.3112  2.0012  1.6878
   18CHTO   C45 7440   5.478   7.779   1.826 -0.4976 -0.2323 -0.1390
   18CHTO   H87 7441   5.522   7.735   1.735 -0.1533  0.2995 -0.2343
   18CHTO    N8 7442   5.333   7.734   1.845 -0.3246  0.5242  0.2006
   18CHTO   H75 7443   5.301   7.688   1.753  0.8008  1.8215 -0.8534
   18CHTO   H76 7444   5.328   7.668   1.930  2.0776 -1.7652 -1.3751
   18CHTO   C43 7445   5.481   7.938   1.813  0.3042  0.1865 -0.0220
   18CHTO   H85 7446   5.426   7.963   1.722  0.2450  2.0367  0.4983
   18CHTO   O29 7447   5.616   7.988   1.814 -0.0133  0.3308  0.5268
   18CHTO   C50 7448   5.717   7.939   1.909 -0.2619 -0.0379 -0.3410
   18CHTO   H92 7449   5.815   7.967   1.868  0.5692 -0.6116  1.1811
   18CHTO   C54 7450   5.715   8.019   2.035 -0.5707 -0.1120  0.4262
   18CHTO   O36 7451   5.741   8.156   2.032  0.6835  0.1732  0.2311
   18CHTO   H72 7452   5.676   8.201   1.981  2.3548  1.9814 -0.3754
   18CHTO   O27 7453   5.410   8.011   1.919 -0.4726  0.3581  0.2969
   18CHTO   C37 7454   5.348   8.136   1.952  0.6667 -0.2314  0.0534
   18CHTO   H79 7455   5.381   8.179   2.048 -1.1323  0.9396  0.1768
   18CHTO   C38 7456   5.373   8.246   1.856  0.0184 -0.3957  0.1857
   18CHTO   H80 7457   5.339   8.217   1.756 -2.4292 -0.3255  0.9527
   18CHTO   O31 7458   5.517   8.270   1.848  0.1994 -0.6487 -0.0938
   18CHTO   H68 7459   5.529   8.361   1.830 -1.3583 -0.4085  0.0328
   18CHTO   C39 7460   5.301   8.380   1.907 -0.2201  0.1913 -0.1082
   18CHTO   H81 7461   5.334   8.398   2.010 -0.2038  0.6770 -0.1993
   18CHTO    N7 7462   5.317   8.505   1.824  0.2077  0.0697  0.3726
   18CHTO   H73 7463   5.242   8.515   1.747  1.1715  0.9901 -0.4564
   18CHTO   H74 7464   5.416   8.514   1.783 -0.4501 -0.1544 -1.3167
   18CHTO   C40 7465   5.151   8.342   1.917  0.8409  0.4087  0.3969
   18CHTO   H82 7466   5.115   8.328   1.815  0.3739 -1.6575  0.8084
   18CHTO   O26 7467   5.126   8.225   1.994 -0.2230 -0.4703  0.4755
   18CHTO   C41 7468   5.200   8.105   1.966 -0.3432 -0.4813 -0.7624
   18CHTO   H83 7469   5.163   8.059   1.873  1.0745  0.2445 -1.6906
   18CHTO   C52 7470   5.179   8.012   2.084  0.4474  0.1597 -0.0068
   18CHTO   O35 7471   5.227   8.071   2.224  0.0395  0.2863 -0.5683
   18CHTO   H71 7472   5.200   8.017   2.296 -0.4211  0.1785 -0.8208
   18CHTO   O28 7473   5.079   8.453   1.980 -0.4622 -0.3334 -0.3381
   18CHTO   C42 7474   4.929   8.463   1.967 -0.5657 -0.0248  0.6814
   18CHTO   H84 7475   4.914   8.557   2.021 -0.9260 -0.7835  1.9206
   18CHTO   C44 7476   4.853   8.358   2.048  0.1012  0.5894 -0.2208
   18CHTO   H86 7477   4.862   8.260   2.001  1.7665 -0.3033  1.8748
   18CHTO   O32 7478   4.927   8.354   2.165  0.0566  0.1649  0.3664
   18CHTO   H69 7479   4.900   8.407   2.237 -3.0394  0.4549 -0.9203
   18CHTO   C48 7480   4.702   8.392   2.057  0.5761 -0.8033  0.5702
   18CHTO   H90 7481   4.677   8.484   2.110  1.1962  0.1328 -0.7343
   18CHTO    N9 7482   4.631   8.294   2.141  0.5132 -0.2654  0.5418
   18CHTO   H77 7483   4.665   8.314   2.242  1.0407 -0.7282  0.4576
   18CHTO   H78 7484   4.524   8.292   2.133  0.6232 -0.8016 -0.8429
   18CHTO   C51 7485   4.644   8.407   1.908  0.8084  0.4487  0.1595
   18CHTO   H93 7486   4.643   8.311   1.855 -1.5539  1.0144 -0.8901
   18CHTO   O30 7487   4.706   8.513   1.833 -0.1777  0.1336 -0.4572
   18CHTO   C46 7488   4.868   8.479   1.823  0.3146 -0.1595 -0.4189
   18CHTO   H88 7489   4.879   8.378   1.784  0.2040  0.2767 -1.5848
   18CHTO   C53 7490   4.931   8.583   1.732  0.1495 -0.0710  0.2626
   18CHTO   O72 7491   4.877   8.564   1.601  0.4254 -0.1508  0.0057
   18CHTO  H199 7492   4.931   8.499   1.559  1.2130  1.0590 -0.8782
   18CHTO   O22 7493   4.506   8.448   1.900 -0.0250  0.0538 -0.8538
   18CHTO   C31 7494   4.420   8.420   1.789 -0.2945 -0.0319  0.5270
   18CHTO   H59 7495   4.318   8.457   1.813 -0.4597 -0.6220  0.7418
   18CHTO   C29 7496   4.462   8.477   1.654  0.1793 -0.5250  0.5103
   18CHTO   H57 7497   4.552   8.420   1.625  0.3674 -0.9138  1.8199
   18CHTO   O21 7498   4.509   8.615   1.668  0.1367  0.6739 -0.8020
   18CHTO   H37 7499   4.559   8.623   1.747 -2.0859  3.5883  0.4016
   18CHTO   C27 7500   4.356   8.460   1.540  0.0845 -0.0347  0.8854
   18CHTO   H55 7501   4.262   8.504   1.577  0.0567  0.4099  0.3002
   18CHTO    N5 7502   4.384   8.516   1.408  0.4695  0.2501 -0.7715
   18CHTO   H43 7503   4.443   8.605   1.424  3.2529 -2.0677  2.3765
   18CHTO   H44 7504   4.448   8.452   1.349 -0.2250 -0.8941 -0.3106
   18CHTO   C25 7505   4.330   8.301   1.524 -0.3531  0.5457  0.0184
   18CHTO   H53 7506   4.415   8.265   1.464  0.3179  3.1348 -0.6634
   18CHTO   O17 7507   4.315   8.227   1.655 -0.4364  0.4406  0.4282
   18CHTO   C32 7508   4.405   8.262   1.765 -0.1703  0.2796 -0.4010
   18CHTO   H60 7509   4.504   8.223   1.743  0.2741 -0.2605  2.3263
   18CHTO   C36 7510   4.349   8.181   1.883 -0.2879  0.5176 -0.0171
   18CHTO   O25 7511   4.351   8.037   1.863 -0.4208 -0.0403  0.4060
   18CHTO   H40 7512   4.264   8.005   1.871 -1.0986  1.5921 -0.2175
   18CHTO   O15 7513   4.196   8.273   1.421 -0.1810  0.2863  0.1631
   18CHTO   C19 7514   4.145   8.163   1.341 -0.4395 -0.7193  0.4380
   18CHTO   H47 7515   4.037   8.179   1.331 -0.1464  0.0872 -1.8706
   18CHTO   C20 7516   4.208   8.170   1.197  0.2652  0.6971 -0.8585
   18CHTO   H48 7517   4.315   8.195   1.203  0.5079 -0.6691  0.8291
   18CHTO   O19 7518   4.144   8.289   1.134 -0.0596  0.1533  0.3001
   18CHTO   H35 7519   4.177   8.371   1.164 -0.1371  0.2433  0.1420
   18CHTO   C21 7520   4.187   8.042   1.111  0.3365 -0.5793 -0.3499
   18CHTO   H49 7521   4.080   8.035   1.092 -0.1634 -0.7796  2.3647
   18CHTO    N4 7522   4.266   8.052   0.985 -0.1262  0.0397  0.3086
   18CHTO   H41 7523   4.231   7.976   0.917  1.6740 -0.3679 -0.1797
   18CHTO   H42 7524   4.240   8.147   0.941  0.6661 -0.8095 -2.0468
   18CHTO   C22 7525   4.227   7.920   1.199  0.0780  0.9132  0.7981
   18CHTO   H50 7526   4.331   7.934   1.228  0.1520  0.2390  0.8643
   18CHTO   O14 7527   4.139   7.914   1.310  0.1740 -0.4381  0.3027
   18CHTO   C23 7528   4.175   8.016   1.407  0.1197  0.0790  0.0400
   18CHTO   H51 7529   4.281   8.005   1.432  0.6832  1.9010 -1.4485
   18CHTO   C34 7530   4.091   8.009   1.536 -0.2833  0.1224 -0.1258
   18CHTO   O23 7531   4.111   7.885   1.599 -0.1979  0.0765 -0.2565
   18CHTO   H38 7532   4.112   7.817   1.535 -0.5412 -1.4486  1.3158
   18CHTO   O16 7533   4.215   7.792   1.137  0.4203 -0.3673  0.1732
   18CHTO   C24 7534   4.354   7.723   1.103 -0.0071 -0.4993 -0.2532
   18CHTO   H52 7535   4.440   7.788   1.111 -0.6013  0.1922  0.6116
   18CHTO   C26 7536   4.351   7.654   0.961 -0.2238 -0.3834 -0.4232
   18CHTO   H54 7537   4.271   7.577   0.968  1.7103 -2.2865  1.5953
   18CHTO   O20 7538   4.320   7.749   0.860 -0.6382  0.4004 -0.5297
   18CHTO   H36 7539   4.385   7.816   0.854  0.4942 -0.5656  0.8221
   18CHTO   C30 7540   4.485   7.571   0.939 -0.2423 -0.1222 -0.4777
   18CHTO   H58 7541   4.573   7.636   0.929  0.4524 -1.3210 -2.3842
   18CHTO    N6 7542   4.483   7.495   0.808  0.3084 -0.5440 -0.1447
   18CHTO   H45 7543   4.580   7.448   0.798 -0.1085 -1.5328  0.4681
   18CHTO   H46 7544   4.407   7.419   0.811  1.2998 -1.5394 -0.0827
   18CHTO   C33 7545   4.503   7.480   1.061 -0.2257 -0.4783  0.6242
   18CHTO   H61 7546   4.417   7.413   1.045 -1.2509  1.5688 -2.8963
   18CHTO   O18 7547   4.490   7.541   1.184 -0.2245 -0.1160  0.5277
   18CHTO   C28 7548   4.370   7.614   1.212  0.3022 -0.2019  0.3966
   18CHTO   H56 7549   4.286   7.545   1.205  0.8750 -0.5919 -3.6232
   18CHTO   C35 7550   4.386   7.676   1.354 -0.1557  0.0997 -0.1139
   18CHTO   O24 7551   4.407   7.577   1.461  0.3679  0.4604 -0.1250
   18CHTO   H39 7552   4.476   7.522   1.429 -0.2352 -0.6133  0.3672
   18CHTO    O9 7553   4.616   7.387   1.057 -0.5010 -0.4355  0.0969
   18CHTO   C13 7554   4.747   7.397   1.139  0.1425  0.3713 -0.5782
   18CHTO   H26 7555   4.719   7.354   1.238  0.1140 -0.6727 -1.0319
   18CHTO   C11 7556   4.807   7.542   1.149 -0.7691 -0.6094  0.4892
   18CHTO   H24 7557   4.737   7.603   1.209 -0.6045  1.6238 -1.5063
   18CHTO    O8 7558   4.812   7.614   1.018 -0.0319  0.2960 -0.2957
   18CHTO    H3 7559   4.826   7.706   1.031  2.4091 -0.2311  1.3182
   18CHTO    C9 7560   4.932   7.532   1.233 -0.4815  0.6651  0.1792
   18CHTO   H22 7561   4.904   7.475   1.323 -1.5487  1.1589  0.1725
   18CHTO    N2 7562   4.984   7.658   1.283 -0.2208  0.5828  0.3621
   18CHTO   H10 7563   5.036   7.707   1.202 -0.9429  0.9772  0.1296
   18CHTO   H11 7564   4.906   7.711   1.336 -1.6422 -2.5238  1.5248
   18CHTO    C7 7565   5.039   7.454   1.153  0.5577  0.4473 -0.1610
   18CHTO   H20 7566   5.124   7.454   1.224  1.6586  1.7479 -1.4422
   18CHTO    O4 7567   4.987   7.322   1.118 -0.1892 -0.2476  0.1132
   18CHTO   C14 7568   4.853   7.293   1.078 -0.0923 -0.4681 -0.7928
   18CHTO   H27 7569   4.823   7.193   1.114  0.9704 -0.5359 -0.0809
   18CHTO   C18 7570   4.857   7.297   0.922  0.5184 -0.3665  0.2080
   18CHTO   O13 7571   4.894   7.167   0.885  0.1010  0.3514 -0.0260
   18CHTO    H7 7572   4.975   7.142   0.925 -0.7717 -0.0957  1.4773
   18CHTO    O2 7573   5.087   7.543   1.009 -0.1030 -0.2602  0.2961
   18CHTO    C1 7574   5.220   7.518   0.951  0.7133  0.7089  0.5952
   18CHTO   H14 7575   5.207   7.457   0.859 -0.6284  2.6363 -0.5173
   18CHTO    C2 7576   5.317   7.446   1.053 -0.3033 -0.1055 -0.2839
   18CHTO   H15 7577   5.325   7.501   1.147  2.3767 -0.7134 -0.0911
   18CHTO    O6 7578   5.273   7.313   1.078  0.1590 -0.3336 -0.4488
   18CHTO    H1 7579   5.344   7.259   1.106 -0.1070 -1.0995 -1.2333
   18CHTO    C3 7580   5.471   7.440   0.991  0.6843  0.6106 -0.0238
   18CHTO   H16 7581   5.481   7.370   0.908  1.3908 -1.7985  2.0349
   18CHTO    N1 7582   5.572   7.396   1.099 -0.6624  0.4732  0.0334
   18CHTO    H8 7583   5.514   7.402   1.190 -2.6504 -1.7149 -1.0403
   18CHTO    H9 7584   5.585   7.291   1.081 -1.1001  0.7352 -1.9414
   18CHTO    C4 7585   5.509   7.579   0.936  0.3204 -0.1407  0.1683
   18CHTO   H17 7586   5.516   7.650   1.018  0.5825 -0.5963  0.5407
   18CHTO    O1 7587   5.408   7.620   0.835 -0.3139  0.0079 -0.7622
   18CHTO    C5 7588   5.287   7.650   0.906  0.3751 -0.2050 -0.0469
   18CHTO   H18 7589   5.301   7.714   0.993  0.8702  0.1559 -0.3828
   18CHTO   C16 7590   5.190   7.722   0.811  0.2098 -0.0360  0.3467
   18CHTO   O11 7591   5.152   7.656   0.694  0.0490  0.4920 -0.4941
   18CHTO    H5 7592   5.101   7.716   0.643 -1.5832 -1.6544 -1.4894
   18CHTO    O3 7593   5.633   7.580   0.862 -0.0284 -0.1674 -0.1557
   18CHTO    C6 7594   5.753   7.627   0.935  0.2825  0.2127  0.3589
   18CHTO   H19 7595   5.739   7.617   1.043  1.3633  0.8871  0.5660
   18CHTO    C8 7596   5.859   7.536   0.875  0.3698  0.2146  0.4410
   18CHTO   H21 7597   5.844   7.535   0.767  2.3590 -1.8663  0.1498
   18CHTO    O7 7598   5.847   7.407   0.930 -0.8390 -0.2503 -0.3188
   18CHTO    H2 7599   5.756   7.383   0.928 -0.7027 -0.6786 -1.3108
   18CHTO   C12 7600   5.997   7.599   0.909 -0.0640 -1.0781 -0.4315
   18CHTO   H25 7601   5.998   7.612   1.019  0.7837  1.4496 -0.6903
   18CHTO    N3 7602   6.106   7.503   0.865 -0.8366  0.9797 -0.6049
   18CHTO   H12 7603   6.107   7.483   0.759 -1.2077  0.8876 -0.5928
   18CHTO   H13 7604   6.201   7.540   0.902  0.0240 -1.3705 -0.4278
   18CHTO   C15 7605   6.010   7.747   0.846  0.4685 -0.0595 -0.0387
   18CHTO   H28 7606   5.981   7.746   0.741 -0.0647  1.0888  0.0819
   18CHTO   O10 7607   6.127   7.820   0.875  0.3400 -0.1396 -0.7395
   18CHTO    H4 7608   6.120   7.896   0.821  0.1409  0.1399 -0.3209
   18CHTO    O5 7609   5.908   7.822   0.911 -0.0120  0.0750 -0.8690
   18CHTO   C10 7610   5.772   7.780   0.896 -0.3177 -0.5009 -0.0320
   18CHTO   H23 7611   5.747   7.814   0.796  0.2458 -1.6059 -0.5589
   18CHTO   C17 7612   5.689   7.872   0.987  0.2547  0.1013 -0.8053
   18CHTO   O12 7613   5.545   7.879   0.965 -0.6944 -0.5014  0.3207
   18CHTO    H6 7614   5.514   7.793   0.945 -3.0217  0.5061 -0.6318
   19CHTO  H203 7615   5.290   9.508   0.221 -0.6241 -1.7235  0.7224
   19CHTO   O82 7616   5.361   9.485   0.164 -0.3395  0.4174  0.1729
   19CHTO  C123 7617   5.315   9.366   0.095 -1.1751  0.4036 -0.3470
   19CHTO  H227 7618   5.290   9.391  -0.009 -0.7391 -1.6193 -0.9541
   19CHTO   O77 7619   5.438   9.283   0.097 -0.4762 -0.1687 -0.9083
   19CHTO  C118 7620   5.428   9.160   0.026  0.2498 -0.1684 -0.1007
   19CHTO  H222 7621   5.407   9.184  -0.080  2.2414  0.1547 -0.4453
   19CHTO  C125 7622   5.578   9.100   0.027 -0.0635  0.0840 -0.3971
   19CHTO   O84 7623   5.673   9.186  -0.041 -0.1166 -0.0918  0.1931
   19CHTO  H205 7624   5.668   9.273  -0.005  2.8860  0.0625  0.4223
   19CHTO  C114 7625   5.320   9.065   0.085  0.1548  0.9785  0.2570
   19CHTO  H218 7626   5.356   9.040   0.185  2.1626 -1.6492 -1.0500
   19CHTO  C116 7627   5.184   9.146   0.088  0.6501  0.1959  0.0097
   19CHTO  H220 7628   5.147   9.169  -0.014  0.8114 -0.4715 -0.2023
   19CHTO   O79 7629   5.084   9.063   0.153 -0.4471 -0.2416 -0.4112
   19CHTO  H201 7630   4.998   9.084   0.123 -0.3600 -0.9694 -1.1970
   19CHTO  C120 7631   5.202   9.281   0.168  0.3615 -0.1842  0.0448
   19CHTO  H224 7632   5.229   9.252   0.272 -1.6466 -0.3306  0.5476
   19CHTO   N21 7633   5.080   9.365   0.184 -0.4644 -0.5863 -0.7380
   19CHTO  H211 7634   5.023   9.364   0.092 -2.2089 -2.5498  0.3060
   19CHTO  H212 7635   5.109   9.467   0.203  0.8829 -0.4575 -3.2972
   19CHTO   O75 7636   5.307   8.945   0.002  0.1365 -0.3486  0.2895
   19CHTO  C112 7637   5.341   8.811   0.062  0.1709 -0.5239  0.2640
   19CHTO  H216 7638   5.355   8.817   0.171  0.6396 -1.1863  0.2467
   19CHTO   O73 7639   5.463   8.777  -0.001  0.2103  0.0278 -0.5078
   19CHTO  C113 7640   5.524   8.659   0.044  0.8143  0.0577  0.4224
   19CHTO  H217 7641   5.532   8.659   0.154  0.2758 -0.8173  0.4683
   19CHTO  C124 7642   5.670   8.642  -0.002  0.1177 -0.4405  0.0373
   19CHTO   O83 7643   5.760   8.738   0.067  0.0568  0.0370 -0.1224
   19CHTO  H204 7644   5.759   8.725   0.159  0.1364 -0.6933 -0.2188
   19CHTO  C109 7645   5.431   8.539  -0.008 -0.2072 -0.7142  0.4807
   19CHTO  H213 7646   5.418   8.550  -0.116  0.1056 -1.2278  0.3854
   19CHTO  C110 7647   5.288   8.564   0.056  0.4903  0.1132  0.3556
   19CHTO  H214 7648   5.291   8.557   0.165  0.4196  0.9118  0.4074
   19CHTO   O78 7649   5.199   8.460   0.008 -0.1693 -0.0516  0.2165
   19CHTO  H200 7650   5.111   8.493   0.016 -0.4356 -0.4361 -1.0043
   19CHTO  C111 7651   5.238   8.699   0.015  0.1297  0.0280 -1.1943
   19CHTO  H215 7652   5.234   8.708  -0.094 -2.5906  0.7133 -1.0660
   19CHTO   N19 7653   5.101   8.736   0.064  0.1354  0.2428  0.2142
   19CHTO  H207 7654   5.097   8.727   0.171  3.7895  2.2250  0.5954
   19CHTO  H208 7655   5.074   8.834   0.028  1.3977  1.4493  2.4808
   19CHTO   O74 7656   5.488   8.410   0.018  0.5056 -0.1017 -0.2070
   19CHTO  C115 7657   5.417   8.294  -0.072 -0.4655  0.1603  0.3329
   19CHTO  H219 7658   5.314   8.272  -0.043 -0.4779 -0.7960 -0.4009
   19CHTO   O76 7659   5.407   8.333  -0.232  0.0785  0.0500  0.3316
   19CHTO  C122 7660   5.515   8.284  -0.313 -0.1437 -0.2266  0.1438
   19CHTO  H226 7661   5.604   8.340  -0.283  0.9687 -1.2265 -1.2440
   19CHTO  C126 7662   5.484   8.335  -0.458  0.2995 -0.6861  0.6474
   19CHTO   O85 7663   5.451   8.471  -0.486  0.4198 -0.4343  0.3539
   19CHTO  H206 7664   5.522   8.522  -0.520 -0.9648  0.4479 -1.2530
   19CHTO  C121 7665   5.553   8.132  -0.299  0.1001  0.2325  0.2765
   19CHTO  H225 7666   5.530   8.077  -0.393 -2.7894 -0.8051  1.5496
   19CHTO   O81 7667   5.702   8.120  -0.285  0.0482  0.2222 -0.2519
   19CHTO  H202 7668   5.736   8.199  -0.247 -0.5334  0.7495 -0.8112
   19CHTO  C119 7669   5.466   8.078  -0.189 -0.3527  0.4067 -0.5616
   19CHTO  H223 7670   5.360   8.089  -0.211 -0.6255 -1.9752 -0.5886
   19CHTO  C117 7671   5.498   8.161  -0.059 -0.1038 -0.2905  0.1217
   19CHTO  H221 7672   5.601   8.192  -0.043  0.5906 -1.8399 -1.1333
   19CHTO   N20 7673   5.461   8.098   0.080 -0.5163 -0.2122  0.1418
   19CHTO  H209 7674   5.524   8.012   0.097 -0.3138 -0.6292 -2.5321
   19CHTO  H210 7675   5.364   8.053   0.065 -1.0396  1.1751 -0.6835
   19CHTO   O80 7676   5.480   7.904  -0.163  0.3204  0.0643  0.1744
   19CHTO  C103 7677   5.424   7.812  -0.250 -0.0096 -0.5214  0.1306
   19CHTO  H190 7678   5.372   7.862  -0.332 -0.6433  0.6944  1.2331
   19CHTO  C101 7679   5.535   7.717  -0.310  0.7265  0.7761 -0.0948
   19CHTO  H188 7680   5.568   7.676  -0.215 -0.5190  2.3804  1.0821
   19CHTO   O68 7681   5.627   7.783  -0.386 -0.2414 -0.4733  0.0588
   19CHTO  H168 7682   5.595   7.789  -0.474 -1.0170  0.1361  0.3773
   19CHTO   C99 7683   5.476   7.591  -0.388  0.0754  1.1621  0.3072
   19CHTO  H186 7684   5.426   7.627  -0.480  0.0086 -1.8805 -0.9272
   19CHTO   N17 7685   5.584   7.492  -0.417  0.0750 -0.3624  0.2086
   19CHTO  H174 7686   5.584   7.485  -0.525 -0.6337 -0.5600  0.2115
   19CHTO  H175 7687   5.569   7.397  -0.367 -0.0703 -0.8067 -0.6794
   19CHTO   C97 7688   5.361   7.529  -0.302  0.2295 -0.1024 -0.6212
   19CHTO  H184 7689   5.415   7.483  -0.218  1.2008  1.4638 -0.3568
   19CHTO   O64 7690   5.263   7.627  -0.257  0.3781  0.5083 -0.2291
   19CHTO  C104 7691   5.313   7.735  -0.176 -0.0887 -0.3438  0.5211
   19CHTO  H191 7692   5.355   7.688  -0.087 -2.0225  1.0750  2.2265
   19CHTO  C108 7693   5.201   7.827  -0.128 -0.0028 -0.5121 -0.2544
   19CHTO   O71 7694   5.137   7.892  -0.243  0.1985  0.0230 -0.1201
   19CHTO  H171 7695   5.048   7.902  -0.216  0.5957  2.3187  0.4066
   19CHTO   O62 7696   5.300   7.424  -0.389 -0.2481 -0.5583  0.1771
   19CHTO   C91 7697   5.187   7.344  -0.347 -0.1629  0.1994 -0.2430
   19CHTO  H178 7698   5.177   7.359  -0.240 -0.9102  1.2815 -0.4561
   19CHTO   C92 7699   5.222   7.186  -0.361 -0.1647 -0.0858  0.5368
   19CHTO  H179 7700   5.259   7.172  -0.464 -1.2033  0.5780  0.0552
   19CHTO   O66 7701   5.330   7.151  -0.271  0.2609 -0.1273 -0.5464
   19CHTO  H166 7702   5.374   7.072  -0.294 -1.6344 -2.0628  2.0842
   19CHTO   C93 7703   5.100   7.090  -0.338 -0.4096  0.1567  0.1429
   19CHTO  H180 7704   5.090   7.080  -0.229  1.9006 -3.1078  0.1276
   19CHTO   N16 7705   5.138   6.955  -0.396  0.3171  0.4834 -0.0150
   19CHTO  H172 7706   5.053   6.889  -0.400  1.0534 -0.4878  0.0908
   19CHTO  H173 7707   5.190   6.961  -0.491  0.6555 -1.3274  0.0352
   19CHTO   C94 7708   4.973   7.143  -0.394  0.3415 -0.2824  0.5642
   19CHTO  H181 7709   4.969   7.139  -0.503 -0.1227  0.2781  0.5615
   19CHTO   O61 7710   4.960   7.281  -0.366  0.1694 -0.9037 -0.3117
   19CHTO   C95 7711   5.054   7.372  -0.415  0.0838 -0.0037  0.6865
   19CHTO  H182 7712   5.059   7.364  -0.524  0.2630 -0.6363  0.7429
   19CHTO  C106 7713   4.994   7.503  -0.376 -0.3993 -0.5539 -0.8955
   19CHTO   O69 7714   5.040   7.611  -0.457  0.1956  0.5356 -0.4239
   19CHTO  H169 7715   5.133   7.624  -0.458  0.4788 -1.3366  0.2209
   19CHTO   O63 7716   4.838   7.061  -0.323 -0.3928 -0.3954 -0.0075
   19CHTO   C96 7717   4.742   7.034  -0.429  0.0410 -0.1393 -0.3566
   19CHTO  H183 7718   4.790   6.989  -0.517 -0.0065  0.1731 -0.5424
   19CHTO   C98 7719   4.676   7.171  -0.479 -0.9027  0.1312  0.8316
   19CHTO  H185 7720   4.754   7.244  -0.506  0.1643 -1.2440  0.1488
   19CHTO   O67 7721   4.608   7.146  -0.604  0.3982 -0.4577 -0.1981
   19CHTO  H167 7722   4.672   7.136  -0.671 -0.4538  3.2092 -1.6633
   19CHTO  C102 7723   4.573   7.227  -0.372  0.7293 -0.3911  0.6863
   19CHTO  H189 7724   4.504   7.291  -0.429  0.8037 -0.5348  0.4358
   19CHTO   N18 7725   4.629   7.319  -0.267 -0.1809 -0.5580  0.7880
   19CHTO  H176 7726   4.731   7.350  -0.284  0.3227 -1.8170  1.4496
   19CHTO  H177 7727   4.568   7.406  -0.249  0.6800 -0.1515  1.7680
   19CHTO  C105 7728   4.492   7.111  -0.307  0.5255  0.5100 -0.1769
   19CHTO  H192 7729   4.526   7.095  -0.204 -2.0118 -0.4253  0.5500
   19CHTO   O65 7730   4.513   6.996  -0.384 -0.1658  0.1419  0.3743
   19CHTO  C100 7731   4.643   6.938  -0.364 -0.0928  0.3610  0.9236
   19CHTO  H187 7732   4.652   6.921  -0.256  1.6231 -0.1012  0.7182
   19CHTO  C107 7733   4.646   6.797  -0.434  0.5160 -0.2308 -0.0673
   19CHTO   O70 7734   4.772   6.735  -0.394 -0.0252 -0.2036 -0.2097
   19CHTO  H170 7735   4.777   6.642  -0.385  0.4233 -0.2326 -0.6768
   19CHTO   O57 7736   4.345   7.160  -0.298  0.4810 -0.2451  0.2611
   19CHTO   C85 7737   4.241   7.073  -0.254  0.1519 -0.4976  0.7622
   19CHTO  H157 7738   4.301   7.006  -0.189  1.7558 -0.6545 -0.8443
   19CHTO   C83 7739   4.184   6.996  -0.371  0.2656 -0.7026 -0.0849
   19CHTO  H155 7740   4.267   6.945  -0.420 -0.5012 -1.1152 -0.9470
   19CHTO   O56 7741   4.142   7.091  -0.476 -0.0260  0.1377  0.4750
   19CHTO  H135 7742   4.055   7.118  -0.452 -0.2037 -1.0167  1.1786
   19CHTO   C81 7743   4.070   6.899  -0.323  0.5812  0.3212 -0.6486
   19CHTO  H153 7744   4.107   6.835  -0.243 -1.9266  1.2396  1.3043
   19CHTO   N14 7745   4.020   6.803  -0.428 -0.3993  0.6862 -0.4662
   19CHTO  H141 7746   3.983   6.711  -0.388  0.5060 -0.6501 -2.6044
   19CHTO  H142 7747   4.074   6.784  -0.518 -2.5332  0.1501 -1.6782
   19CHTO   C79 7748   3.952   6.988  -0.259  0.1081 -0.5862 -0.5482
   19CHTO  H151 7749   3.873   6.922  -0.223  0.5580 -1.4849 -1.1996
   19CHTO   O52 7750   4.012   7.065  -0.140 -0.4378  0.2287  0.7129
   19CHTO   C86 7751   4.121   7.153  -0.179  0.0387 -0.4737 -0.4534
   19CHTO  H158 7752   4.074   7.215  -0.258 -2.4049 -2.4161 -0.5814
   19CHTO   C90 7753   4.163   7.241  -0.064  0.6335 -0.0100  0.1473
   19CHTO   O60 7754   4.277   7.319  -0.085  0.2770  0.2553 -0.7291
   19CHTO  H138 7755   4.332   7.311  -0.010  1.4528  0.9849 -1.4823
   19CHTO   O50 7756   3.885   7.073  -0.350  0.1464 -0.2105  0.7277
   19CHTO   C73 7757   3.749   7.102  -0.382 -0.6881  0.9209  0.1082
   19CHTO  H145 7758   3.681   7.053  -0.310 -1.0216 -0.6968 -1.2807
   19CHTO   C74 7759   3.709   7.059  -0.532  0.0690  0.4487 -0.2986
   19CHTO  H146 7760   3.719   6.950  -0.543  0.2312  0.1817  2.1191
   19CHTO   O54 7761   3.568   7.079  -0.544  0.1232  0.1937 -0.3550
   19CHTO  H133 7762   3.525   6.999  -0.520  0.7995  0.2685  1.1422
   19CHTO   C75 7763   3.803   7.138  -0.632 -0.6199  0.4664 -0.6512
   19CHTO  H147 7764   3.903   7.098  -0.613 -1.0799 -0.0542  0.7138
   19CHTO   N13 7765   3.762   7.116  -0.774 -0.2881  0.4740  0.2972
   19CHTO  H139 7766   3.842   7.074  -0.833  2.1727  1.0883  3.1240
   19CHTO  H140 7767   3.713   7.195  -0.830  0.4278 -0.6147 -1.9188
   19CHTO   C76 7768   3.809   7.291  -0.598 -0.2216 -0.0403 -0.3582
   19CHTO  H148 7769   3.715   7.332  -0.636  1.0679  1.6502 -1.7979
   19CHTO   O49 7770   3.825   7.323  -0.452  0.0201  0.0357  0.1690
   19CHTO   C77 7771   3.722   7.253  -0.374 -0.6111 -0.6139 -0.0002
   19CHTO  H149 7772   3.621   7.273  -0.409 -0.3301  0.6952 -0.1073
   19CHTO   C88 7773   3.731   7.309  -0.228 -0.5493  0.1407  0.2387
   19CHTO   O58 7774   3.695   7.466  -0.219 -0.3444 -0.5127  0.2977
   19CHTO  H136 7775   3.612   7.481  -0.179  0.6281  1.1491  1.7584
   19CHTO   O51 7776   3.931   7.346  -0.684 -0.2480  0.0884  0.0969
   19CHTO   C78 7777   3.961   7.486  -0.655 -0.2027  0.2594 -0.2643
   19CHTO  H150 7778   3.917   7.507  -0.555 -2.2763 -1.7015 -0.7327
   19CHTO   C80 7779   3.892   7.574  -0.767 -0.3211 -0.6300 -0.6719
   19CHTO  H152 7780   3.940   7.554  -0.865  1.2643 -0.6264  0.0789
   19CHTO   O55 7781   3.757   7.547  -0.767  0.4220  0.0466  0.5466
   19CHTO  H134 7782   3.740   7.455  -0.764 -0.9614  0.1142 -2.9017
   19CHTO   C84 7783   3.917   7.733  -0.737 -0.4354 -0.3743  0.0943
   19CHTO  H156 7784   3.864   7.762  -0.646 -0.5677 -0.1305 -0.0572
   19CHTO   N15 7785   3.862   7.814  -0.848 -0.4982 -0.4672 -0.1036
   19CHTO  H143 7786   3.903   7.781  -0.941 -1.5537  1.9041 -1.4622
   19CHTO  H144 7787   3.755   7.817  -0.854 -0.3645  2.8918 -2.8254
   19CHTO   C87 7788   4.073   7.756  -0.724 -0.4059 -0.0954  1.0655
   19CHTO  H159 7789   4.120   7.754  -0.822 -3.1635  1.0873 -0.3246
   19CHTO   O53 7790   4.143   7.659  -0.628  0.6709  0.2343  0.2509
   19CHTO   C82 7791   4.115   7.518  -0.659 -0.0694  0.1223  0.6169
   19CHTO  H154 7792   4.159   7.503  -0.758 -1.0198  0.6560  0.1038
   19CHTO   C89 7793   4.185   7.416  -0.567 -0.3787 -0.2613  0.2166
   19CHTO   O59 7794   4.202   7.479  -0.435  0.1934 -0.3616  0.3320
   19CHTO  H137 7795   4.210   7.399  -0.386  0.3956 -0.3811  0.2641
   19CHTO   O45 7796   4.096   7.902  -0.673 -0.9318 -0.1710  0.0871
   19CHTO   C67 7797   4.074   7.914  -0.527 -0.0998  0.4790 -0.0757
   19CHTO  H124 7798   4.022   7.828  -0.485  0.8305 -1.0335 -1.9510
   19CHTO   C65 7799   4.222   7.914  -0.470 -0.0299 -0.2220 -1.0837
   19CHTO  H122 7800   4.288   7.935  -0.554 -1.3862 -1.7450 -2.5655
   19CHTO   O44 7801   4.249   7.788  -0.408 -0.3100  0.1594 -0.1553
   19CHTO  H102 7802   4.325   7.744  -0.439 -0.0826  1.1803 -1.0513
   19CHTO   C63 7803   4.251   8.034  -0.362  0.2728  0.1180  0.1718
   19CHTO  H120 7804   4.252   8.129  -0.414 -0.0554 -0.1753 -0.3674
   19CHTO   N11 7805   4.395   8.043  -0.302 -0.1443  0.0912 -1.0599
   19CHTO  H108 7806   4.460   8.037  -0.386 -0.3600  0.0073 -1.2218
   19CHTO  H109 7807   4.413   7.957  -0.240  0.8548 -0.8055 -2.5680
   19CHTO   C61 7808   4.123   8.034  -0.271  0.2983 -0.7424 -0.3334
   19CHTO  H118 7809   4.143   8.124  -0.211 -0.2160 -0.6608 -0.2855
   19CHTO   O40 7810   3.994   8.046  -0.336  0.1141  0.5763 -0.4322
   19CHTO   C68 7811   3.996   8.040  -0.483 -0.5456 -0.2285 -0.4422
   19CHTO  H125 7812   4.041   8.133  -0.524  1.7831 -0.9288  0.5001
   19CHTO   C72 7813   3.850   8.040  -0.520  0.7349 -0.5995 -0.3772
   19CHTO   O48 7814   3.766   8.149  -0.471  0.1639 -0.1878  0.1549
   19CHTO  H105 7815   3.770   8.160  -0.378  3.5889 -0.0262  0.0534
   19CHTO   O38 7816   4.111   7.912  -0.188 -0.7959 -0.3698 -0.1275
   19CHTO   C55 7817   4.006   7.912  -0.096 -0.6579 -0.1832  0.0591
   19CHTO  H112 7818   3.927   7.982  -0.127  0.2584 -0.6628 -3.5685
   19CHTO   C56 7819   4.072   7.951   0.048  0.0834  0.1993 -0.2516
   19CHTO  H113 7820   4.145   7.873   0.077  0.9744  0.7935 -0.8603
   19CHTO   O42 7821   4.153   8.074   0.044  0.3841  0.1865  0.3304
   19CHTO  H100 7822   4.198   8.092   0.123 -2.0145  0.6732  1.6465
   19CHTO   C57 7823   3.956   7.960   0.157 -0.2178 -0.0746 -0.1295
   19CHTO  H114 7824   3.932   8.066   0.168 -0.0239  0.0456 -0.8518
   19CHTO   N10 7825   4.001   7.931   0.295  0.5690  0.5869 -0.1680
   19CHTO  H106 7826   4.059   8.013   0.335  1.1851  1.3443 -2.5367
   19CHTO  H107 7827   3.917   7.910   0.359  2.2514 -2.0556  1.2592
   19CHTO   C58 7828   3.825   7.884   0.120 -0.6655 -0.4865  0.3649
   19CHTO  H115 7829   3.778   7.843   0.212 -0.8335 -2.0077 -0.3811
   19CHTO   O37 7830   3.839   7.771   0.022  0.6459 -0.1973 -0.6113
   19CHTO   C59 7831   3.951   7.774  -0.068  0.3926 -0.6935 -0.4397
   19CHTO  H116 7832   4.031   7.709  -0.033 -0.9300 -2.2501 -0.1963
   19CHTO   C70 7833   3.908   7.712  -0.203  0.0563 -0.3193  0.0010
   19CHTO   O46 7834   3.831   7.793  -0.291  0.3634  0.1631 -1.0900
   19CHTO  H103 7835   3.879   7.865  -0.327 -0.0132  0.3527 -1.2175
   19CHTO   O39 7836   3.731   7.992   0.065 -0.3800  0.4925  0.1186
   19CHTO   C60 7837   3.596   7.945   0.064  0.4497 -0.0582  0.1683
   19CHTO  H117 7838   3.588   7.839   0.088  0.3104 -0.0424  0.1940
   19CHTO   C62 7839   3.510   8.015   0.176  0.2119  0.5541 -0.4550
   19CHTO  H119 7840   3.541   7.992   0.280 -0.3740 -1.9460 -0.7822
   19CHTO   O43 7841   3.512   8.160   0.171 -0.2108  0.2533 -0.5063
   19CHTO  H101 7842   3.468   8.204   0.101  0.0453 -1.7305 -1.9768
   19CHTO   C66 7843   3.364   7.963   0.170 -0.4503 -1.1143  0.1031
   19CHTO  H123 7844   3.361   7.855   0.155  1.1025 -1.0766 -0.6012
   19CHTO   N12 7845   3.294   7.996   0.294  0.7626 -0.1630 -0.3216
   19CHTO  H110 7846   3.187   7.996   0.286  0.5579  1.6905  1.8200
   19CHTO  H111 7847   3.338   7.931   0.368  2.5794  0.2005 -1.0616
   19CHTO   C69 7848   3.296   8.032   0.047 -0.1341  0.3844 -0.7079
   19CHTO  H126 7849   3.269   8.138   0.063  0.4993  0.1836  1.9384
   19CHTO   O41 7850   3.401   8.032  -0.091  0.1516 -0.3444 -0.2065
   19CHTO   C64 7851   3.538   7.964  -0.084 -0.8284 -0.3034 -0.3431
   19CHTO  H121 7852   3.606   8.031  -0.141 -0.5920  0.4047  0.7456
   19CHTO   C71 7853   3.537   7.821  -0.148 -0.2528  0.9186 -0.1513
   19CHTO   O47 7854   3.440   7.735  -0.096  0.3287  0.2861 -0.0693
   19CHTO  H104 7855   3.423   7.657  -0.145 -2.5887  2.1138 -2.1856
   19CHTO   O34 7856   3.151   7.936   0.010 -0.0686  1.0545  0.1264
   19CHTO   C49 7857   3.044   7.987  -0.066  1.1837  0.4731  0.1401
   19CHTO   H91 7858   2.985   8.049   0.001 -4.0694 -2.4682 -1.4679
   19CHTO   C47 7859   2.962   7.868  -0.127  0.1546  0.4234 -0.0295
   19CHTO   H89 7860   2.872   7.913  -0.174  0.7429 -0.9220 -2.5053
   19CHTO   O33 7861   2.930   7.773  -0.024  0.2413  0.4282  0.0432
   19CHTO   H70 7862   2.874   7.804   0.044  0.7283  0.3282  0.4964
   19CHTO   C45 7863   3.035   7.783  -0.252 -0.2496  0.4383 -0.1676
   19CHTO   H87 7864   3.107   7.712  -0.209 -0.0005  1.7839  1.7255
   19CHTO    N8 7865   2.940   7.708  -0.336 -0.1385 -0.2511 -0.1729
   19CHTO   H75 7866   2.951   7.602  -0.318 -2.3670 -0.3076  1.1875
   19CHTO   H76 7867   2.945   7.734  -0.441  0.0253 -0.4807 -0.2203
   19CHTO   C43 7868   3.125   7.890  -0.334  0.4250  0.4598 -0.4258
   19CHTO   H85 7869   3.225   7.885  -0.291  0.8978 -1.4995 -1.6550
   19CHTO   O29 7870   3.063   8.022  -0.321 -0.4467 -0.5879 -0.2064
   19CHTO   C50 7871   3.086   8.078  -0.188  0.1771 -0.9493  0.1986
   19CHTO   H92 7872   3.194   8.099  -0.187  0.8981 -4.1961 -2.1347
   19CHTO   C54 7873   3.016   8.226  -0.182  0.5792 -0.6075  0.1047
   19CHTO   O36 7874   2.871   8.214  -0.190  0.1751 -0.2753 -0.5673
   19CHTO   H72 7875   2.826   8.195  -0.110  0.7368 -1.4571 -0.5259
   19CHTO   O27 7876   3.149   7.855  -0.472 -0.0619  0.1317  0.2181
   19CHTO   C37 7877   3.183   7.834  -0.613 -0.5229 -0.4488  0.3277
   19CHTO   H79 7878   3.124   7.754  -0.660  0.5926 -1.1839  0.1687
   19CHTO   C38 7879   3.164   7.962  -0.702 -0.0859 -0.1538  0.6965
   19CHTO   H80 7880   3.211   8.047  -0.651 -0.8365  1.0592 -0.6356
   19CHTO   O31 7881   3.022   7.980  -0.694  0.3266  0.3757  0.5276
   19CHTO   H68 7882   2.987   7.984  -0.607  0.9627  2.9454  0.7131
   19CHTO   C39 7883   3.214   7.960  -0.851  0.5928  0.6361 -0.5472
   19CHTO   H81 7884   3.154   7.894  -0.914 -0.0831  0.4915  0.2354
   19CHTO    N7 7885   3.204   8.100  -0.914  0.0225 -0.4176  0.4432
   19CHTO   H73 7886   3.260   8.107  -1.007 -0.0325 -0.0855  0.4355
   19CHTO   H74 7887   3.105   8.143  -0.911  0.6975  1.5494 -2.6995
   19CHTO   C40 7888   3.356   7.903  -0.850  0.1746 -0.7100  0.5635
   19CHTO   H82 7889   3.430   7.980  -0.824 -0.1836  0.0156 -0.5374
   19CHTO   O26 7890   3.367   7.785  -0.768  0.3251  0.1588  0.1840
   19CHTO   C41 7891   3.330   7.794  -0.629 -0.5077 -0.4626 -0.6056
   19CHTO   H83 7892   3.392   7.869  -0.578 -2.5838  0.3869  0.7345
   19CHTO   C52 7893   3.363   7.659  -0.558 -0.2237  0.1104  0.1008
   19CHTO   O35 7894   3.516   7.639  -0.531  0.6114 -0.6230 -0.7062
   19CHTO   H71 7895   3.527   7.645  -0.438 -0.9177  0.1139 -0.5589
   19CHTO   O28 7896   3.388   7.845  -0.980  0.4397  0.2429  0.4881
   19CHTO   C42 7897   3.514   7.851  -1.057 -0.2907 -0.1625  0.8364
   19CHTO   H84 7898   3.586   7.863  -0.976  2.0494  2.3984 -1.5569
   19CHTO   C44 7899   3.537   7.972  -1.148 -0.2450 -0.5116  0.6568
   19CHTO   H86 7900   3.468   7.972  -1.233  1.5043 -0.5777 -0.7739
   19CHTO   O32 7901   3.501   8.089  -1.068  0.6170 -0.1208  0.0847
   19CHTO   H69 7902   3.561   8.119  -1.002 -2.8014  0.7105  3.0122
   19CHTO   C48 7903   3.681   7.965  -1.204 -0.0120  0.5566  0.1061
   19CHTO   H90 7904   3.752   7.968  -1.121  0.3994  1.8465 -0.2825
   19CHTO    N9 7905   3.717   8.079  -1.298 -0.3775  0.6021  0.0541
   19CHTO   H77 7906   3.825   8.082  -1.298 -0.3532 -0.3934 -0.2539
   19CHTO   H78 7907   3.685   8.176  -1.262 -1.9799 -0.0765  0.5246
   19CHTO   C51 7908   3.693   7.832  -1.291 -0.2635 -0.1102  0.3269
   19CHTO   H93 7909   3.630   7.826  -1.379 -0.6932  1.3103  0.5235
   19CHTO   O30 7910   3.669   7.720  -1.199 -0.0908 -0.1842 -0.1597
   19CHTO   C46 7911   3.541   7.718  -1.129 -0.1239  0.4151  0.4617
   19CHTO   H88 7912   3.456   7.687  -1.189  0.1513  0.7439 -0.0998
   19CHTO   C53 7913   3.554   7.598  -1.026  0.1089 -0.1964  0.0257
   19CHTO   O72 7914   3.616   7.477  -1.067  0.2305 -0.3010 -0.5491
   19CHTO  H199 7915   3.591   7.412  -1.004 -2.5060  1.5033  0.3048
   19CHTO   O22 7916   3.826   7.793  -1.323 -0.0312  0.4338 -0.2882
   19CHTO   C31 7917   3.844   7.684  -1.430 -0.4370 -0.3617 -0.3503
   19CHTO   H59 7918   3.749   7.627  -1.433 -0.9776  0.5259 -0.2168
   19CHTO   C29 7919   3.859   7.738  -1.575 -0.1154 -0.3838 -0.1171
   19CHTO   H57 7920   3.946   7.805  -1.569  0.9425 -1.5642 -1.9256
   19CHTO   O21 7921   3.748   7.820  -1.613 -0.4902 -0.5588  0.4933
   19CHTO   H37 7922   3.703   7.863  -1.542 -1.6801 -0.7602 -0.1127
   19CHTO   C27 7923   3.889   7.619  -1.670  0.2336 -0.3432  0.4768
   19CHTO   H55 7924   3.793   7.567  -1.684 -0.2758  0.9310 -1.0279
   19CHTO    N5 7925   3.935   7.667  -1.804 -0.0628  0.2743  0.0292
   19CHTO   H43 7926   4.008   7.603  -1.851  0.3661 -0.3158  1.4557
   19CHTO   H44 7927   3.860   7.710  -1.869 -0.0662 -1.0228 -0.8375
   19CHTO   C25 7928   3.992   7.508  -1.619  0.1579 -1.1583  0.0491
   19CHTO   H53 7929   4.092   7.552  -1.608  0.7534 -2.4513 -0.0948
   19CHTO   O17 7930   3.950   7.469  -1.488  0.9597 -0.2104  0.1986
   19CHTO   C32 7931   3.962   7.589  -1.404  0.6135  0.1984 -0.0911
   19CHTO   H60 7932   4.055   7.642  -1.422  1.2564 -1.3915 -1.6372
   19CHTO   C36 7933   3.961   7.554  -1.255 -0.3166  0.1741  1.0188
   19CHTO   O25 7934   3.871   7.458  -1.194  0.2213  0.2568  0.1977
   19CHTO   H40 7935   3.889   7.446  -1.103  0.3980 -3.0679 -0.2377
   19CHTO   O15 7936   3.986   7.387  -1.702 -0.2163  0.0923  0.7867
   19CHTO   C19 7937   4.035   7.252  -1.716  0.2376  0.4195 -0.0557
   19CHTO   H47 7938   3.989   7.214  -1.808  0.7546 -0.2086 -0.0629
   19CHTO   C20 7939   4.190   7.243  -1.729 -0.0390 -0.1735  0.2234
   19CHTO   H48 7940   4.241   7.258  -1.633  0.9048 -1.3289 -0.0920
   19CHTO   O19 7941   4.233   7.329  -1.839 -0.2842  0.5271  0.3918
   19CHTO   H35 7942   4.236   7.417  -1.807  2.6825  0.0853  1.4797
   19CHTO   C21 7943   4.234   7.096  -1.755 -0.2538  0.9166  0.4514
   19CHTO   H49 7944   4.194   7.069  -1.853 -1.1019 -0.2061  1.0947
   19CHTO    N4 7945   4.379   7.078  -1.752 -0.0167  0.0718 -0.5774
   19CHTO   H41 7946   4.418   7.148  -1.680 -0.7475 -0.1143  0.0005
   19CHTO   H42 7947   4.415   7.102  -1.851 -1.8777 -0.4169 -1.4045
   19CHTO   C22 7948   4.161   6.999  -1.655 -0.2190 -0.3288  0.3356
   19CHTO   H50 7949   4.217   7.005  -1.561  0.2518  0.7021 -0.0068
   19CHTO   O14 7950   4.020   7.022  -1.634 -0.4534 -0.1881  0.1080
   19CHTO   C23 7951   3.983   7.158  -1.606 -0.6501 -0.7354  0.5941
   19CHTO   H51 7952   4.026   7.181  -1.507  1.4303  0.8230 -0.6492
   19CHTO   C34 7953   3.832   7.176  -1.586  0.0663 -0.1635 -0.0273
   19CHTO   O23 7954   3.781   7.100  -1.473 -0.2510  0.2986  0.4059
   19CHTO   H38 7955   3.705   7.138  -1.434 -1.8044 -2.8959  0.6578
   19CHTO   O16 7956   4.158   6.870  -1.715  0.0349  0.0334  0.1714
   19CHTO   C24 7957   4.165   6.756  -1.621  0.2069  0.3856 -0.2565
   19CHTO   H52 7958   4.143   6.790  -1.519  1.9596  0.9522 -0.0463
   19CHTO   C26 7959   4.302   6.689  -1.632 -0.5084 -0.1414 -0.7013
   19CHTO   H54 7960   4.338   6.696  -1.737  0.9016  1.4484 -0.1268
   19CHTO   O20 7961   4.393   6.776  -1.561  0.0698  0.2149 -0.9502
   19CHTO   H36 7962   4.357   6.814  -1.483  0.8588 -0.0777 -0.4358
   19CHTO   C30 7963   4.308   6.537  -1.590 -0.0243 -0.1089 -0.9431
   19CHTO   H58 7964   4.307   6.535  -1.480  1.5166  0.5351 -0.9087
   19CHTO    N6 7965   4.436   6.470  -1.624 -0.2821 -0.0917  0.2454
   19CHTO   H45 7966   4.447   6.468  -1.731 -0.7223 -0.1915  0.1987
   19CHTO   H46 7967   4.440   6.369  -1.587  0.7596  0.1878  0.9086
   19CHTO   C33 7968   4.179   6.463  -1.634 -0.6839  0.9520  1.0068
   19CHTO   H61 7969   4.187   6.455  -1.743 -1.9856  0.8133  0.9193
   19CHTO   O18 7970   4.061   6.540  -1.600  0.6205  0.5181 -0.0589
   19CHTO   C28 7971   4.048   6.665  -1.663 -0.1393  0.7301  0.4440
   19CHTO   H56 7972   4.053   6.655  -1.771  0.9153  0.0424  0.5451
   19CHTO   C35 7973   3.907   6.722  -1.628  0.4561  1.3767  0.1458
   19CHTO   O24 7974   3.804   6.641  -1.697  0.0161  0.0368 -0.6934
   19CHTO   H39 7975   3.801   6.551  -1.671 -1.6459  0.9052  2.3296
   19CHTO    O9 7976   4.171   6.325  -1.586 -0.2418 -0.3661 -0.4036
   19CHTO   C13 7977   4.104   6.217  -1.681 -0.5708  0.3722  0.1971
   19CHTO   H26 7978   4.124   6.233  -1.789  1.0411  1.9922  0.7127
   19CHTO   C11 7979   3.961   6.219  -1.651  0.9542  0.1124 -0.0336
   19CHTO   H24 7980   3.925   6.319  -1.680 -0.0320 -0.3068 -0.2541
   19CHTO    O8 7981   3.932   6.195  -1.513  0.3165 -0.1112 -0.5494
   19CHTO    H3 7982   3.845   6.215  -1.484  0.5503  1.0974 -0.6517
   19CHTO    C9 7983   3.890   6.118  -1.743  0.8402  0.2855  0.5935
   19CHTO   H22 7984   3.919   6.142  -1.846 -0.5806 -0.3480  0.0382
   19CHTO    N2 7985   3.740   6.148  -1.737 -0.3694 -0.0848  0.0691
   19CHTO   H10 7986   3.710   6.131  -1.635 -1.5555 -0.5164 -0.3408
   19CHTO   H11 7987   3.688   6.079  -1.803 -2.4694 -1.4334  3.0500
   19CHTO    C7 7988   3.925   5.976  -1.694 -0.2618 -0.3727 -0.8927
   19CHTO   H20 7989   3.899   5.910  -1.779  0.5406 -1.4331 -0.3280
   19CHTO    O4 7990   4.068   5.963  -1.674 -0.3175 -0.1770  0.2367
   19CHTO   C14 7991   4.156   6.069  -1.658 -0.4177  0.1217 -0.2095
   19CHTO   H27 7992   4.224   6.043  -1.741 -0.0882  2.1787 -0.6109
   19CHTO   C18 7993   4.227   6.039  -1.526 -0.0615 -0.5973  0.2785
   19CHTO   O13 7994   4.147   6.056  -1.412  0.6506 -0.6091 -0.0029
   19CHTO    H7 7995   4.176   5.988  -1.354  1.4489 -0.0260  0.2838
   19CHTO    O2 7996   3.840   5.919  -1.561 -0.1354 -0.1850  0.4100
   19CHTO    C1 7997   3.806   5.775  -1.556  0.0778  0.0197 -0.4642
   19CHTO   H14 7998   3.879   5.725  -1.622  0.1068  0.1481 -0.5295
   19CHTO    C2 7999   3.655   5.759  -1.621 -0.1725  0.5489 -0.2259
   19CHTO   H15 8000   3.588   5.828  -1.568 -1.0177  0.1273 -0.7346
   19CHTO    O6 8001   3.671   5.789  -1.760  0.2336 -0.4713 -0.0080
   19CHTO    H1 8002   3.688   5.881  -1.769 -3.2974  0.1015 -1.6110
   19CHTO    C3 8003   3.608   5.607  -1.596  0.3969  0.0553 -0.4893
   19CHTO   H16 8004   3.676   5.544  -1.655  0.3814 -0.5548  0.1329
   19CHTO    N1 8005   3.463   5.581  -1.641  0.9933  0.5366 -0.0225
   19CHTO    H8 8006   3.397   5.653  -1.597  1.1529  0.6907 -0.0351
   19CHTO    H9 8007   3.468   5.589  -1.748  1.5004  1.0661  0.0377
   19CHTO    C4 8008   3.637   5.569  -1.440  0.2765  0.1065  0.2567
   19CHTO   H17 8009   3.589   5.645  -1.378  1.7769 -1.1471  3.0217
   19CHTO    O1 8010   3.772   5.570  -1.411 -0.2726  0.1702  0.2535
   19CHTO    C5 8011   3.830   5.704  -1.415  0.0309 -0.3153 -0.0718
   19CHTO   H18 8012   3.780   5.769  -1.342 -1.6973 -1.0101 -0.6106
   19CHTO   C16 8013   3.981   5.703  -1.383 -0.0539 -0.1192 -0.7016
   19CHTO   O11 8014   3.983   5.682  -1.242  0.0923 -0.6564 -0.0046
   19CHTO    H5 8015   4.072   5.693  -1.212  0.4212 -0.8903 -0.8822
   19CHTO    O3 8016   3.580   5.437  -1.412 -0.3623 -0.0627 -0.0873
   19CHTO    C6 8017   3.513   5.427  -1.281 -0.2027 -0.3916  0.3079
   19CHTO   H19 8018   3.491   5.526  -1.242 -0.4764 -0.6578  0.8328
   19CHTO    C8 8019   3.381   5.349  -1.312 -0.3863  0.5103  0.0703
   19CHTO   H21 8020   3.406   5.261  -1.370  0.5150  0.6733  0.1988
   19CHTO    O7 8021   3.296   5.433  -1.386  0.0473  0.3992  0.1178
   19CHTO    H2 8022   3.278   5.399  -1.472  1.3418 -1.9023  0.7119
   19CHTO   C12 8023   3.316   5.313  -1.175  0.2470 -0.5983  0.3859
   19CHTO   H25 8024   3.277   5.407  -1.131  2.1268 -0.2967  1.4984
   19CHTO    N3 8025   3.188   5.232  -1.191  0.1569 -1.1033  0.2246
   19CHTO   H12 8026   3.154   5.214  -1.291  0.5410 -0.3520 -0.0476
   19CHTO   H13 8027   3.178   5.151  -1.120 -0.7722 -0.8063  0.4434
   19CHTO   C15 8028   3.418   5.250  -1.077  0.2097  0.1453  0.7516
   19CHTO   H28 8029   3.448   5.156  -1.122 -0.7535  0.4447 -0.5659
   19CHTO   O10 8030   3.348   5.240  -0.938 -0.6342 -0.2055  0.4320
   19CHTO    H4 8031   3.282   5.173  -0.933 -0.9109  0.0426  0.1145
   19CHTO    O5 8032   3.529   5.333  -1.055 -0.0794  0.3513  0.2138
   19CHTO   C10 8033   3.612   5.359  -1.174 -0.5441 -0.2342  0.1503
   19CHTO   H23 8034   3.658   5.263  -1.196 -1.4085 -0.4020 -0.9284
   19CHTO   C17 8035   3.727   5.450  -1.136 -0.1945 -0.7439 -0.2979
   19CHTO   O12 8036   3.694   5.586  -1.099  0.1983  0.3640  0.1792
   19CHTO    H6 8037   3.775   5.630  -1.115 -0.0475  0.6085 -0.3966
   20CHTO  H203 8038   5.184   0.401   1.955 -1.7539  1.0978 -0.4371
   20CHTO   O82 8039   5.236   0.478   1.952 -0.0152 -0.0309  0.2114
   20CHTO  C123 8040   5.162   0.597   1.933  0.5117 -0.3178  0.1301
   20CHTO  H227 8041   5.132   0.637   2.031  2.2780  0.1756  0.4832
   20CHTO   O77 8042   5.265   0.681   1.870 -0.1305 -0.4271 -0.0762
   20CHTO  C118 8043   5.241   0.821   1.865 -0.2127 -0.1092  0.0504
   20CHTO  H222 8044   5.206   0.854   1.964  1.1328 -2.1559  1.2329
   20CHTO  C125 8045   5.371   0.900   1.825  0.0535 -0.1614 -0.5567
   20CHTO   O84 8046   5.414   0.870   1.690  0.4871  0.1393 -0.4509
   20CHTO  H205 8047   5.389   0.941   1.634  1.7064  0.0100 -1.1968
   20CHTO  C114 8048   5.122   0.826   1.761 -0.0386 -0.1101 -0.5451
   20CHTO  H218 8049   5.149   0.785   1.664 -0.2544  1.4864 -1.2997
   20CHTO  C116 8050   4.997   0.737   1.799 -0.1174 -0.3971 -0.1505
   20CHTO  H220 8051   4.952   0.790   1.885 -2.3837 -3.2715  0.5169
   20CHTO   O79 8052   4.899   0.741   1.693 -0.0706 -0.6529  0.1337
   20CHTO  H201 8053   4.855   0.823   1.701  0.2042 -0.3811 -1.0860
   20CHTO  C120 8054   5.042   0.593   1.828  0.7527 -0.1284 -0.2712
   20CHTO  H224 8055   5.069   0.550   1.730  0.4662  3.0929 -1.8314
   20CHTO   N21 8056   4.934   0.500   1.868 -0.2780  0.0175  0.0350
   20CHTO  H211 8057   4.851   0.539   1.923  0.0055 -0.5289  0.8613
   20CHTO  H212 8058   4.984   0.418   1.917  0.5133  1.1310  1.1001
   20CHTO   O75 8059   5.084   0.964   1.759 -0.2363  0.0032 -0.4489
   20CHTO  C112 8060   5.076   1.022   1.600  0.8723  0.1892 -0.0671
   20CHTO  H216 8061   5.037   0.944   1.534  0.9486 -0.8444  1.0841
   20CHTO   O73 8062   5.210   1.053   1.566 -0.1873 -0.2747  0.5633
   20CHTO  C113 8063   5.238   1.120   1.442 -0.0186 -0.1405  0.9432
   20CHTO  H217 8064   5.214   1.053   1.357  0.3675  0.4825  0.3436
   20CHTO  C124 8065   5.388   1.152   1.436 -0.0411  0.1979  0.7378
   20CHTO   O83 8066   5.437   1.157   1.295  0.2359 -0.0039 -0.5162
   20CHTO  H204 8067   5.495   1.228   1.275  0.2654 -0.6140 -2.7114
   20CHTO  C109 8068   5.159   1.255   1.437 -0.3018  0.1517 -0.6892
   20CHTO  H213 8069   5.206   1.321   1.511 -2.2783 -0.7335  1.4131
   20CHTO  C110 8070   5.012   1.232   1.473  0.0218 -0.3845 -0.2099
   20CHTO  H214 8071   4.970   1.167   1.396 -0.9343  0.0129 -0.0323
   20CHTO   O78 8072   4.949   1.362   1.470  0.1305  0.0887  0.0187
   20CHTO  H200 8073   4.856   1.351   1.463 -0.2321  3.4016 -1.5726
   20CHTO  C111 8074   4.992   1.156   1.609 -0.9318 -0.5364  0.5436
   20CHTO  H215 8075   5.028   1.209   1.699 -0.2834 -0.2294  0.1039
   20CHTO   N19 8076   4.853   1.128   1.627 -0.2996 -0.1563  0.0109
   20CHTO  H207 8077   4.795   1.219   1.627  0.9185  0.6424 -0.5543
   20CHTO  H208 8078   4.819   1.064   1.547 -0.4303  0.5593 -0.5222
   20CHTO   O74 8079   5.180   1.311   1.300  0.4396  0.5034  0.5511
   20CHTO  C115 8080   5.249   1.462   1.302  0.6032  0.0577  0.1134
   20CHTO  H219 8081   5.290   1.484   1.401 -0.8287 -0.3124  0.8063
   20CHTO   O76 8082   5.375   1.466   1.213  0.2006  0.1456 -0.3264
   20CHTO  C122 8083   5.342   1.471   1.069  0.3442  0.1707 -0.2150
   20CHTO  H226 8084   5.316   1.367   1.052 -1.7193  0.0216  3.2345
   20CHTO  C126 8085   5.482   1.492   0.993  0.3308  0.2302 -0.4776
   20CHTO   O85 8086   5.530   1.618   1.025  0.1619  0.2694  0.3583
   20CHTO  H206 8087   5.513   1.653   1.110  0.8932  1.4549  0.0297
   20CHTO  C121 8088   5.228   1.568   1.031 -0.5829 -0.9185  0.3038
   20CHTO  H225 8089   5.257   1.638   0.950  0.9878 -0.9880  0.7856
   20CHTO   O81 8090   5.123   1.495   0.967 -0.6350 -0.1180  0.1155
   20CHTO  H202 8091   5.064   1.561   0.934  2.2821  0.7787 -3.6038
   20CHTO  C119 8092   5.181   1.654   1.145  0.4082  0.1072 -0.9634
   20CHTO  H223 8093   5.272   1.702   1.181  0.3774 -0.2828 -0.3611
   20CHTO  C117 8094   5.136   1.568   1.263 -0.7077 -0.0512 -0.0124
   20CHTO  H221 8095   5.041   1.523   1.236 -1.0227  1.9949 -2.5133
   20CHTO   N20 8096   5.100   1.655   1.388 -0.0128  0.2787  0.1499
   20CHTO  H209 8097   5.198   1.668   1.432  0.2239 -1.0747  0.0548
   20CHTO  H210 8098   5.070   1.754   1.358 -0.9012 -0.3930 -1.1915
   20CHTO   O80 8099   5.084   1.790   1.103 -0.1845 -0.1531 -0.5386
   20CHTO  C103 8100   4.945   1.766   1.042 -0.7965  0.2592  0.0906
   20CHTO  H190 8101   4.923   1.664   1.011  0.6745  0.8719 -3.1979
   20CHTO  C101 8102   4.827   1.813   1.133 -0.1586  0.6158  0.1272
   20CHTO  H188 8103   4.862   1.905   1.181 -1.0397  0.2377  1.5344
   20CHTO   O68 8104   4.798   1.706   1.244  0.0311 -0.5916  0.6051
   20CHTO  H168 8105   4.799   1.743   1.331 -1.5868 -1.5608  1.0590
   20CHTO   C99 8106   4.692   1.844   1.046  0.3671  0.3836  0.3111
   20CHTO  H186 8107   4.663   1.747   1.001  0.2457  0.5668 -0.0063
   20CHTO   N17 8108   4.580   1.906   1.130 -0.0990 -0.2606  0.3373
   20CHTO  H174 8109   4.491   1.851   1.101  0.7671 -0.6528 -1.6918
   20CHTO  H175 8110   4.567   2.013   1.119 -0.9543 -0.3924 -0.0064
   20CHTO   C97 8111   4.733   1.931   0.927 -0.0204 -0.9373  0.0306
   20CHTO  H184 8112   4.774   2.027   0.959 -1.8822 -1.0142  2.8398
   20CHTO   O64 8113   4.820   1.862   0.841 -0.3337  0.3071 -0.2290
   20CHTO  C104 8114   4.953   1.852   0.907  0.3140  0.0126 -0.0996
   20CHTO  H191 8115   4.974   1.955   0.938 -0.7851  0.0977  0.4131
   20CHTO  C108 8116   5.059   1.815   0.803 -0.3594 -0.6354 -0.7380
   20CHTO   O71 8117   5.042   1.681   0.748  0.5503  0.3684  0.1918
   20CHTO  H171 8118   4.963   1.678   0.697  1.3338  1.6208 -1.1532
   20CHTO   O62 8119   4.618   1.960   0.842 -0.3904  0.3871  0.1242
   20CHTO   C91 8120   4.621   2.066   0.745 -0.2585  0.8977  0.3816
   20CHTO  H178 8121   4.719   2.114   0.755 -0.0541  0.8955 -1.4321
   20CHTO   C92 8122   4.518   2.177   0.761  0.0860 -0.3745  0.3513
   20CHTO  H179 8123   4.418   2.138   0.737  1.6798 -3.0155 -2.3861
   20CHTO   O66 8124   4.527   2.229   0.897 -0.0582  0.4124  0.1943
   20CHTO  H166 8125   4.495   2.317   0.906  0.8067  0.5987  1.6109
   20CHTO   C93 8126   4.532   2.295   0.656  0.5845  0.6201  0.5075
   20CHTO  H180 8127   4.634   2.335   0.667  1.3627 -0.3392 -2.5396
   20CHTO   N16 8128   4.437   2.404   0.668 -0.3737 -0.5063 -0.1816
   20CHTO  H172 8129   4.424   2.440   0.769  0.0933 -1.3160  0.1758
   20CHTO  H173 8130   4.338   2.381   0.633 -0.3532  1.9685 -1.9606
   20CHTO   C94 8131   4.523   2.229   0.514  0.0542 -0.4362  0.0884
   20CHTO  H181 8132   4.425   2.189   0.489  0.9190 -1.4762 -1.7919
   20CHTO   O61 8133   4.617   2.123   0.498 -0.0782 -0.5839  0.2709
   20CHTO   C95 8134   4.602   2.016   0.594  0.8253  0.0802 -0.7587
   20CHTO  H182 8135   4.507   1.966   0.578  1.8391 -1.2244 -2.9170
   20CHTO  C106 8136   4.707   1.905   0.559 -0.5718 -0.2787  0.2777
   20CHTO   O69 8137   4.664   1.782   0.618  0.7924  0.0936 -0.3776
   20CHTO  H169 8138   4.671   1.800   0.710  2.6051 -0.0898 -0.4597
   20CHTO   O63 8139   4.554   2.331   0.400  0.0540  0.3774 -0.3258
   20CHTO   C96 8140   4.549   2.271   0.251  0.0711  0.4115  0.2325
   20CHTO  H183 8141   4.520   2.166   0.257  0.0344  0.3731 -0.6000
   20CHTO   C98 8142   4.690   2.269   0.180  0.4607  0.0190  0.3012
   20CHTO  H185 8143   4.737   2.369   0.184  1.1149 -0.2471 -0.5192
   20CHTO   O67 8144   4.776   2.176   0.252  0.1962  0.2364  0.5059
   20CHTO  H167 8145   4.804   2.215   0.332 -0.0514 -0.1133  0.7652
   20CHTO  C102 8146   4.674   2.221   0.024 -0.7068 -0.2237 -0.4378
   20CHTO  H189 8147   4.660   2.112   0.026  1.0956 -0.4642  2.1462
   20CHTO   N18 8148   4.800   2.242  -0.043 -0.7697  0.3451 -0.3903
   20CHTO  H176 8149   4.872   2.197   0.024 -1.8608 -3.6386 -1.7615
   20CHTO  H177 8150   4.822   2.348  -0.048  1.8657 -0.2745 -4.2414
   20CHTO  C105 8151   4.551   2.281  -0.040  0.1850 -0.0668 -0.0991
   20CHTO  H192 8152   4.565   2.388  -0.057  0.4820 -0.1947 -0.6782
   20CHTO   O65 8153   4.433   2.270   0.045 -0.3167 -0.5260 -0.0865
   20CHTO  C100 8154   4.443   2.346   0.164  0.3069  0.3051 -0.3315
   20CHTO  H187 8155   4.482   2.446   0.138  1.5362 -0.0980 -0.0761
   20CHTO  C107 8156   4.308   2.353   0.234  0.3741 -0.5710 -0.9019
   20CHTO   O70 8157   4.226   2.451   0.166  0.3937 -0.1435 -0.2066
   20CHTO  H170 8158   4.139   2.414   0.168  0.1082  0.1896 -3.2496
   20CHTO   O57 8159   4.510   2.204  -0.190  0.0430 -1.0407 -0.1748
   20CHTO   C85 8160   4.486   2.067  -0.201  0.0004  0.2942 -0.2019
   20CHTO  H157 8161   4.496   2.030  -0.097  0.9080  1.1001 -0.0023
   20CHTO   C83 8162   4.602   1.990  -0.276  0.4864 -0.7568  0.3641
   20CHTO  H155 8163   4.682   2.000  -0.203  1.8720 -0.3174 -1.2005
   20CHTO   O56 8164   4.635   2.062  -0.399  0.7761  0.0947  0.7418
   20CHTO  H135 8165   4.564   2.087  -0.454  1.5581  2.4800  0.7837
   20CHTO   C81 8166   4.557   1.843  -0.292  0.2643  0.3553 -0.2510
   20CHTO  H153 8167   4.545   1.798  -0.193 -1.3697 -0.7644 -0.9280
   20CHTO   N14 8168   4.671   1.764  -0.348  0.1104  0.0071 -0.1872
   20CHTO  H141 8169   4.764   1.802  -0.314  0.2694  1.1465 -1.8535
   20CHTO  H142 8170   4.681   1.756  -0.454 -1.4216 -0.6864 -0.2912
   20CHTO   C79 8171   4.426   1.828  -0.377  0.1503 -0.8180  0.0552
   20CHTO  H151 8172   4.400   1.723  -0.386  0.3974 -0.7066 -2.0991
   20CHTO   O52 8173   4.314   1.897  -0.309  0.1786 -0.0267 -0.0008
   20CHTO   C86 8174   4.340   2.037  -0.264 -0.0407  0.8302 -0.1091
   20CHTO  H158 8175   4.325   2.089  -0.361 -0.7922  1.3650  0.2900
   20CHTO   C90 8176   4.220   2.073  -0.176  0.0899 -0.4298 -0.0664
   20CHTO   O60 8177   4.207   2.218  -0.163  0.4961  0.2315 -0.0322
   20CHTO  H138 8178   4.156   2.265  -0.226 -0.7494 -0.5057  0.4129
   20CHTO   O50 8179   4.431   1.874  -0.514 -1.2895 -0.5833 -0.4904
   20CHTO   C73 8180   4.389   1.888  -0.653  0.4679 -0.0284 -0.4792
   20CHTO  H145 8181   4.477   1.914  -0.715  0.4392  0.3558 -0.3596
   20CHTO   C74 8182   4.280   1.995  -0.675  0.4420 -0.5150 -0.9343
   20CHTO  H146 8183   4.324   2.088  -0.637  0.9236 -0.7068 -1.0213
   20CHTO   O54 8184   4.267   2.029  -0.812  0.5669  0.2525 -0.0255
   20CHTO  H133 8185   4.255   2.122  -0.819  1.3441  0.3950  0.4056
   20CHTO   C75 8186   4.142   1.957  -0.606 -0.5065 -0.3591 -0.5392
   20CHTO  H147 8187   4.162   1.960  -0.498  2.4837  2.8449 -1.0864
   20CHTO   N13 8188   4.037   2.054  -0.632 -0.3595 -0.2417 -0.4203
   20CHTO  H139 8189   3.956   2.043  -0.562  0.9440  1.7651  1.4987
   20CHTO  H140 8190   4.077   2.155  -0.628 -1.7870  0.2856  1.4666
   20CHTO   C76 8191   4.102   1.816  -0.646  0.0873 -0.0144  0.0116
   20CHTO  H148 8192   4.062   1.821  -0.747  0.5379 -1.6380 -0.2650
   20CHTO   O49 8193   4.213   1.721  -0.636  0.5931  0.5769  0.1432
   20CHTO   C77 8194   4.328   1.754  -0.711 -0.4434 -0.5215  0.4437
   20CHTO  H149 8195   4.297   1.772  -0.814  1.6950 -0.3925 -0.2143
   20CHTO   C88 8196   4.429   1.634  -0.712  0.6332 -0.0447  0.5732
   20CHTO   O58 8197   4.362   1.507  -0.741  0.4466 -0.1437  0.0461
   20CHTO  H136 8198   4.366   1.486  -0.833 -0.8955  0.5279 -0.1656
   20CHTO   O51 8199   3.980   1.749  -0.539 -0.2205  0.0684 -1.0676
   20CHTO   C78 8200   4.014   1.760  -0.374  0.4422  0.0438  0.1457
   20CHTO  H150 8201   4.094   1.836  -0.359  2.4386 -2.2322  1.4450
   20CHTO   C80 8202   4.064   1.626  -0.312  0.0419  0.0780  0.6358
   20CHTO  H152 8203   3.994   1.542  -0.336  1.1443 -0.7743  0.3704
   20CHTO   O55 8204   4.190   1.604  -0.364  0.0779 -0.3195 -0.3457
   20CHTO  H134 8205   4.230   1.521  -0.349 -0.8335 -0.5659  0.8021
   20CHTO   C84 8206   4.086   1.651  -0.157 -0.0102  0.2209  0.0461
   20CHTO  H156 8207   4.164   1.726  -0.142  0.1364 -0.2874  1.9957
   20CHTO   N15 8208   4.131   1.523  -0.085 -0.3396  0.3767 -0.0504
   20CHTO  H143 8209   4.086   1.518   0.012 -2.7357  0.4076 -1.1279
   20CHTO  H144 8210   4.114   1.428  -0.132  0.1970 -1.1806  2.7985
   20CHTO   C87 8211   3.962   1.716  -0.087 -0.5557  0.2145 -0.2168
   20CHTO  H159 8212   3.881   1.643  -0.082  1.2121 -1.7902  0.2730
   20CHTO   O53 8213   3.922   1.838  -0.159 -0.0078 -0.1855 -0.0513
   20CHTO   C82 8214   3.888   1.805  -0.295 -0.0027 -0.2391 -0.2532
   20CHTO  H154 8215   3.812   1.727  -0.297 -0.0668 -0.1508 -3.0903
   20CHTO   C89 8216   3.814   1.929  -0.352  0.2017  0.5185  0.1866
   20CHTO   O59 8217   3.888   2.049  -0.330  0.0753 -0.6745 -0.1090
   20CHTO  H137 8218   3.841   2.120  -0.370 -0.7029 -0.7920  0.6008
   20CHTO   O45 8219   3.983   1.742   0.061 -0.3580  0.1574 -0.1036
   20CHTO   C67 8220   4.040   1.868   0.103 -0.1992 -0.3072 -0.0790
   20CHTO  H124 8221   4.100   1.908   0.021  0.7956 -0.9823  0.3005
   20CHTO   C65 8222   3.927   1.962   0.142 -0.1582  0.0719  0.6955
   20CHTO  H122 8223   3.849   1.946   0.067 -0.5427 -2.0906  1.4988
   20CHTO   O44 8224   3.979   2.096   0.141  0.1480  0.6586 -0.5477
   20CHTO  H102 8225   3.935   2.157   0.197  0.8556  0.4171  0.2773
   20CHTO   C63 8226   3.857   1.913   0.270 -0.0349  0.2079 -0.5279
   20CHTO  H120 8227   3.823   1.810   0.256  0.1733  0.2564 -1.3956
   20CHTO   N11 8228   3.726   1.980   0.301  1.0695  0.3643  0.9485
   20CHTO  H108 8229   3.726   1.984   0.408  1.5041 -3.0302  1.1258
   20CHTO  H109 8230   3.743   2.083   0.274  0.4965  0.6913  1.8081
   20CHTO   C61 8231   3.973   1.910   0.378 -0.2071  0.4255  0.5741
   20CHTO  H118 8232   3.917   1.862   0.460 -1.1864  1.5457  0.5826
   20CHTO   O40 8233   4.064   1.816   0.334 -0.0555  0.0765  0.0194
   20CHTO   C68 8234   4.141   1.837   0.216 -0.2758 -0.8312 -0.9219
   20CHTO  H125 8235   4.198   1.748   0.182 -0.5095 -0.8818 -1.1783
   20CHTO   C72 8236   4.245   1.950   0.243  0.0118  0.1395  0.5353
   20CHTO   O48 8237   4.342   1.973   0.136  0.8366 -0.1816 -0.1523
   20CHTO  H105 8238   4.411   1.910   0.132  0.0408 -1.1765  1.4789
   20CHTO   O38 8239   4.019   2.043   0.417 -0.4057  0.2953 -0.3365
   20CHTO   C55 8240   4.005   2.074   0.561 -0.3058 -0.1549 -0.4409
   20CHTO  H112 8241   3.928   2.010   0.606 -1.1107  1.0786 -0.0497
   20CHTO   C56 8242   3.979   2.232   0.577 -0.3437  1.4488  0.3740
   20CHTO  H113 8243   4.063   2.276   0.521 -0.8899  0.9775 -0.8274
   20CHTO   O42 8244   3.867   2.289   0.509 -0.0094 -0.0400  0.3752
   20CHTO  H100 8245   3.785   2.262   0.545  0.1382 -0.1829  0.6044
   20CHTO   C57 8246   3.982   2.272   0.731  0.6122  0.3681 -0.4512
   20CHTO  H114 8247   3.888   2.251   0.782  1.7793 -0.3748  1.4488
   20CHTO   N10 8248   4.011   2.418   0.743  0.5851 -0.6802 -0.1830
   20CHTO  H106 8249   4.111   2.447   0.771 -0.3682  1.4317  1.1323
   20CHTO  H107 8250   3.940   2.459   0.814 -0.7797 -1.4194 -1.0905
   20CHTO   C58 8251   4.100   2.200   0.805 -0.5839  0.5704  1.0669
   20CHTO  H115 8252   4.194   2.253   0.776 -0.6241 -0.1404 -0.4150
   20CHTO   O37 8253   4.110   2.059   0.772 -0.1887 -0.1076  0.5752
   20CHTO   C59 8254   4.142   2.049   0.632  0.4091 -0.7756  0.2905
   20CHTO  H116 8255   4.213   2.122   0.595 -2.4482  1.3659 -1.0974
   20CHTO   C70 8256   4.215   1.916   0.618  0.4137 -0.8901 -0.3008
   20CHTO   O46 8257   4.319   1.893   0.714  0.1938  0.1892 -0.0053
   20CHTO  H103 8258   4.325   1.957   0.782  2.5257 -0.0834  0.0822
   20CHTO   O39 8259   4.081   2.226   0.962  0.3393  0.0059 -0.3283
   20CHTO   C60 8260   4.178   2.181   1.045 -0.1837 -0.4363  0.3609
   20CHTO  H117 8261   4.256   2.132   0.988  0.1640 -0.5955  0.9642
   20CHTO   C62 8262   4.247   2.295   1.131  0.1561 -1.0858 -1.0724
   20CHTO  H119 8263   4.303   2.354   1.056 -0.2504 -0.3172 -0.7683
   20CHTO   O43 8264   4.145   2.362   1.204 -0.7041 -0.2150 -0.1831
   20CHTO  H101 8265   4.166   2.441   1.250 -1.6309 -0.3277  0.4601
   20CHTO   C66 8266   4.361   2.218   1.225 -0.1444  0.0950  0.1520
   20CHTO  H123 8267   4.427   2.167   1.156  1.5360  1.4134  0.7587
   20CHTO   N12 8268   4.448   2.319   1.296 -0.0494 -0.2235 -0.4350
   20CHTO  H110 8269   4.530   2.271   1.347  2.1004  3.0929 -0.6880
   20CHTO  H111 8270   4.480   2.409   1.246 -2.5321  1.0301  0.1580
   20CHTO   C69 8271   4.290   2.118   1.321  0.5187  0.3945 -0.3762
   20CHTO  H126 8272   4.215   2.165   1.389  1.0989  0.6518  0.0935
   20CHTO   O41 8273   4.213   2.029   1.236 -0.0907  0.6149 -0.3411
   20CHTO   C64 8274   4.118   2.074   1.147  0.1276 -0.3292 -0.3066
   20CHTO  H121 8275   4.033   2.124   1.198  1.7648 -0.2793  2.4966
   20CHTO   C71 8276   4.050   1.945   1.066  0.1672 -0.6410 -0.3178
   20CHTO   O47 8277   3.945   1.977   0.982 -0.0760 -0.5464  0.3770
   20CHTO  H104 8278   3.939   1.921   0.907  0.2814 -1.0969  0.7634
   20CHTO   O34 8279   4.383   2.039   1.409  0.1219  0.5348 -0.0104
   20CHTO   C49 8280   4.353   1.888   1.483  0.2114  0.3983 -0.0857
   20CHTO   H91 8281   4.377   1.816   1.405 -0.2118 -0.3742  0.4952
   20CHTO   C47 8282   4.202   1.884   1.527  0.4415 -0.1802 -0.6093
   20CHTO   H89 8283   4.150   1.874   1.429 -0.9793 -0.8255  0.2098
   20CHTO   O33 8284   4.152   2.008   1.586  0.0008 -0.4236 -0.4845
   20CHTO   H70 8285   4.058   2.013   1.584  0.1249  3.7283  1.0898
   20CHTO   C45 8286   4.161   1.765   1.625 -0.3557 -0.1493 -0.3292
   20CHTO   H87 8287   4.178   1.803   1.727  0.3278 -0.0705 -0.4683
   20CHTO    N8 8288   4.023   1.724   1.602 -1.0714  0.0053 -0.5285
   20CHTO   H75 8289   4.014   1.623   1.567  3.1945 -1.0587  1.1182
   20CHTO   H76 8290   3.969   1.726   1.696 -0.1786  1.3396 -0.0202
   20CHTO   C43 8291   4.270   1.656   1.621 -0.4901  0.8182  0.5285
   20CHTO   H85 8292   4.236   1.576   1.687  0.1535 -1.0265 -1.3243
   20CHTO   O29 8293   4.394   1.715   1.664  0.0031 -0.8230  0.2557
   20CHTO   C50 8294   4.433   1.847   1.607  0.5217 -0.1769 -0.7065
   20CHTO   H92 8295   4.411   1.920   1.686  0.1926  0.5329 -1.4448
   20CHTO   C54 8296   4.582   1.844   1.580 -0.0497  0.9579  0.0115
   20CHTO   O36 8297   4.638   1.972   1.543  0.2542 -0.8206 -0.7121
   20CHTO   H72 8298   4.668   2.021   1.617 -1.6991 -2.1732  1.0529
   20CHTO   O27 8299   4.295   1.585   1.497  0.5272 -0.3804  0.5061
   20CHTO   C37 8300   4.317   1.514   1.373 -0.3593  0.1466  1.3508
   20CHTO   H79 8301   4.233   1.444   1.359  0.7363 -1.0099  0.5195
   20CHTO   C38 8302   4.317   1.608   1.241 -0.3332  0.6185  0.1866
   20CHTO   H80 8303   4.395   1.684   1.252 -1.6343  2.0719 -0.5229
   20CHTO   O31 8304   4.185   1.663   1.245  0.5386  0.7922  0.0073
   20CHTO   H68 8305   4.130   1.649   1.320  0.5567 -0.8349 -0.2732
   20CHTO   C39 8306   4.338   1.517   1.113  0.5050 -0.7342  0.0502
   20CHTO   H81 8307   4.251   1.450   1.115 -0.9429  1.1328  2.4781
   20CHTO    N7 8308   4.347   1.598   0.986  0.4116  0.2213 -0.1322
   20CHTO   H73 8309   4.278   1.564   0.909 -0.2897 -1.0603  1.0460
   20CHTO   H74 8310   4.353   1.706   0.990  3.5259  0.1436 -1.5212
   20CHTO   C40 8311   4.459   1.419   1.133  0.7042 -0.9964  0.0912
   20CHTO   H82 8312   4.553   1.475   1.134 -1.0191  2.0703 -1.6603
   20CHTO   O26 8313   4.436   1.350   1.253  0.6806  0.3924  0.9755
   20CHTO   C41 8314   4.449   1.434   1.365  0.1537 -0.3375  0.7806
   20CHTO   H83 8315   4.535   1.503   1.369 -0.3378  0.3531 -0.2788
   20CHTO   C52 8316   4.470   1.344   1.491  0.0804 -0.5992 -0.2627
   20CHTO   O35 8317   4.517   1.401   1.618 -0.0127  0.0494  0.2723
   20CHTO   H71 8318   4.606   1.424   1.597  1.0494 -2.1081  2.1704
   20CHTO   O28 8319   4.464   1.332   1.017 -0.2059 -0.0170 -0.4037
   20CHTO   C42 8320   4.584   1.255   0.987  0.0061  0.2415  0.4016
   20CHTO   H84 8321   4.557   1.178   0.915  0.4991 -0.0397  0.5190
   20CHTO   C44 8322   4.646   1.169   1.100  0.4142 -0.2196 -0.0943
   20CHTO   H86 8323   4.686   1.235   1.177 -0.0973 -2.0226  1.7719
   20CHTO   O32 8324   4.542   1.094   1.164 -0.1099  0.4269  0.1523
   20CHTO   H69 8325   4.510   1.144   1.237 -0.2557  0.6858 -0.0894
   20CHTO   C48 8326   4.774   1.084   1.060 -0.0502 -0.8996 -0.2880
   20CHTO   H90 8327   4.730   1.006   0.999  1.1653  0.6367 -3.2185
   20CHTO    N9 8328   4.843   0.998   1.166 -0.3756 -0.2173  0.2673
   20CHTO   H77 8329   4.879   1.071   1.237 -0.9416  2.6785 -2.3137
   20CHTO   H78 8330   4.768   0.938   1.216 -1.0400  0.3403 -0.0404
   20CHTO   C51 8331   4.880   1.164   0.975  0.3611  0.3919  0.2881
   20CHTO   H93 8332   4.945   1.226   1.037 -0.3152  0.9139  0.4834
   20CHTO   O30 8333   4.806   1.238   0.880  0.0344 -0.3570 -0.0371
   20CHTO   C46 8334   4.704   1.337   0.929 -0.1776 -0.2097  0.2702
   20CHTO   H88 8335   4.750   1.395   1.009  1.0380  1.4425 -1.5437
   20CHTO   C53 8336   4.664   1.443   0.821  0.0504  0.3193 -0.0779
   20CHTO   O72 8337   4.779   1.530   0.798 -0.3479  0.1048 -0.3241
   20CHTO  H199 8338   4.752   1.614   0.767 -0.3743  0.2778  0.1670
   20CHTO   O22 8339   4.952   1.063   0.891  0.1107 -0.3024 -0.4953
   20CHTO   C31 8340   5.069   1.112   0.809 -0.1743 -0.5590 -0.0865
   20CHTO   H59 8341   5.101   1.026   0.746  0.0336  0.4276 -1.3497
   20CHTO   C29 8342   5.034   1.228   0.708  0.6717  0.8113  0.6486
   20CHTO   H57 8343   4.998   1.315   0.765 -0.1748  0.9751 -0.1291
   20CHTO   O21 8344   4.925   1.197   0.627 -0.3571  0.0846 -0.4384
   20CHTO   H37 8345   4.924   1.103   0.618  2.1859  0.0204 -0.3305
   20CHTO   C27 8346   5.160   1.259   0.622 -0.0505 -0.5162  0.2266
   20CHTO   H55 8347   5.185   1.171   0.561 -1.5070 -1.6476  1.2260
   20CHTO    N5 8348   5.134   1.376   0.535 -0.3388  0.2749 -0.1342
   20CHTO   H43 8349   5.110   1.461   0.598  1.6488  0.5886  0.2356
   20CHTO   H44 8350   5.079   1.356   0.444  2.1153 -1.1734 -1.3627
   20CHTO   C25 8351   5.293   1.280   0.712 -0.3093 -0.1085 -0.1707
   20CHTO   H53 8352   5.273   1.372   0.769 -2.7530 -1.6429  1.5551
   20CHTO   O17 8353   5.306   1.171   0.806  0.1649 -0.2115 -0.2702
   20CHTO   C32 8354   5.197   1.152   0.897  0.3781  0.0942  0.3913
   20CHTO   H60 8355   5.171   1.242   0.953 -2.0510 -1.1170  1.2745
   20CHTO   C36 8356   5.257   1.039   0.984 -0.1810 -0.2789 -0.7663
   20CHTO   O25 8357   5.163   1.009   1.089  0.3759 -0.0728 -0.0705
   20CHTO   H40 8358   5.116   0.929   1.076  2.3577 -1.3616  0.4230
   20CHTO   O15 8359   5.424   1.294   0.636 -0.4360  0.9256 -0.1019
   20CHTO   C19 8360   5.525   1.379   0.570 -0.1799  0.6626 -0.1296
   20CHTO   H47 8361   5.483   1.376   0.469 -0.4296 -0.7606  0.0121
   20CHTO   C20 8362   5.527   1.527   0.602 -0.0730 -0.6550 -0.9362
   20CHTO   H48 8363   5.562   1.549   0.704 -0.7774  0.3474 -0.8967
   20CHTO   O19 8364   5.397   1.577   0.570 -0.0454 -1.0308  0.2485
   20CHTO   H35 8365   5.401   1.669   0.552 -0.7226 -0.6010  2.1424
   20CHTO   C21 8366   5.633   1.602   0.499 -0.0995  0.2065 -0.2863
   20CHTO   H49 8367   5.586   1.608   0.401 -1.2327  3.1853  0.3763
   20CHTO    N4 8368   5.666   1.740   0.531  0.3285  0.3380  0.9258
   20CHTO   H41 8369   5.632   1.770   0.629  0.2828 -0.6015  1.1995
   20CHTO   H42 8370   5.766   1.777   0.513  0.3276  0.2567  0.7509
   20CHTO   C22 8371   5.766   1.515   0.483 -0.7742  0.1995 -0.2203
   20CHTO   H50 8372   5.811   1.516   0.583  0.5383 -1.4714 -0.7628
   20CHTO   O14 8373   5.734   1.379   0.450 -0.3319  0.5799  0.8165
   20CHTO   C23 8374   5.665   1.313   0.562 -0.4859  0.2061 -0.2416
   20CHTO   H51 8375   5.721   1.329   0.655  2.0055  3.0679 -2.1313
   20CHTO   C34 8376   5.655   1.159   0.558 -0.3967  0.0399  0.4793
   20CHTO   O23 8377   5.791   1.103   0.565 -0.0078  0.3438  0.2696
   20CHTO   H38 8378   5.781   1.010   0.553 -0.6890  0.3919  0.4260
   20CHTO   O16 8379   5.856   1.555   0.383 -0.0571  0.2580  0.6966
   20CHTO   C24 8380   5.994   1.485   0.403  0.9324 -0.4719 -0.0098
   20CHTO   H52 8381   5.986   1.397   0.466 -1.2410  0.1841  0.6688
   20CHTO   C26 8382   6.087   1.591   0.473 -0.3473 -0.3083 -0.2160
   20CHTO   H54 8383   6.102   1.674   0.401 -0.5621  0.4916  0.6734
   20CHTO   O20 8384   6.032   1.651   0.588  0.6164  0.1303 -0.0386
   20CHTO   H36 8385   5.941   1.669   0.575  1.0394  2.2531 -0.2607
   20CHTO   C30 8386   6.224   1.517   0.501 -0.5904  0.0873 -0.6024
   20CHTO   H58 8387   6.214   1.456   0.592  0.1211 -1.4720 -1.5508
   20CHTO    N6 8388   6.336   1.613   0.529 -0.2441  0.3915  0.1437
   20CHTO   H45 8389   6.288   1.703   0.563 -3.0761 -1.1589  0.3681
   20CHTO   H46 8390   6.400   1.630   0.443 -0.2494  2.1380  0.4826
   20CHTO   C33 8391   6.265   1.405   0.402  0.2361  0.3847  0.1120
   20CHTO   H61 8392   6.372   1.391   0.382  0.3578  2.3907 -0.7750
   20CHTO   O18 8393   6.200   1.411   0.275 -0.5528  0.3055 -0.0057
   20CHTO   C28 8394   6.060   1.441   0.266  0.1304 -0.2109  0.4548
   20CHTO   H56 8395   6.049   1.529   0.204 -2.9035  1.3257  3.0173
   20CHTO   C35 8396   5.985   1.320   0.200  0.1040 -0.6889 -0.1433
   20CHTO   O24 8397   5.991   1.199   0.281  0.0508 -0.8082  0.1558
   20CHTO   H39 8398   5.975   1.125   0.227  2.4973 -0.4997 -1.0592
   20CHTO    O9 8399   6.226   1.287   0.472 -0.1005 -0.0105  0.5005
   20CHTO   C13 8400   6.348   1.209   0.556 -0.9375 -0.0601  1.2487
   20CHTO   H26 8401   6.409   1.285   0.609  0.4946  0.3003 -0.8757
   20CHTO   C11 8402   6.439   1.122   0.458 -0.1342  0.0032  0.0382
   20CHTO   H24 8403   6.516   1.190   0.417 -0.8566  0.0496 -1.2812
   20CHTO    O8 8404   6.364   1.071   0.350  0.4698 -0.1722  0.6724
   20CHTO    H3 8405   6.299   1.133   0.321  0.3794 -1.2530 -1.5359
   20CHTO    C9 8406   6.504   1.013   0.544 -0.0683 -0.5659  0.5086
   20CHTO   H22 8407   6.554   1.066   0.627 -0.9388 -0.7559  1.1591
   20CHTO    N2 8408   6.617   0.948   0.477 -0.1838 -0.2759 -0.0923
   20CHTO   H10 8409   6.695   1.019   0.454 -1.3291  1.6189  1.6694
   20CHTO   H11 8410   6.649   0.869   0.543 -1.5450 -1.5634 -0.9351
   20CHTO    C7 8411   6.386   0.923   0.595  0.1945  0.0419 -0.1295
   20CHTO   H20 8412   6.422   0.888   0.694  0.4119  1.4897  0.3141
   20CHTO    O4 8413   6.260   0.990   0.612  0.1272  0.0066 -0.0954
   20CHTO   C14 8414   6.276   1.118   0.667 -0.7093  0.3194 -0.1631
   20CHTO   H27 8415   6.335   1.100   0.760 -0.0449 -1.6585 -0.9311
   20CHTO   C18 8416   6.151   1.188   0.716 -0.7955  0.1018 -0.3964
   20CHTO   O13 8417   6.077   1.098   0.797 -0.6817  0.5121  0.6609
   20CHTO    H7 8418   6.051   1.029   0.740  1.0495  1.1140 -0.9049
   20CHTO    O2 8419   6.350   0.790   0.490 -0.5194  0.0929  0.7566
   20CHTO    C1 8420   6.286   0.676   0.548  0.3141 -0.6268 -0.1562
   20CHTO   H14 8421   6.218   0.704   0.631 -1.5805  0.6531 -2.0964
   20CHTO    C2 8422   6.404   0.578   0.600  0.3032 -0.1057  0.1560
   20CHTO   H15 8423   6.473   0.571   0.514 -0.1586  0.3534 -0.2471
   20CHTO    O6 8424   6.478   0.638   0.716 -0.6128  0.9633 -0.6155
   20CHTO    H1 8425   6.550   0.685   0.677 -0.7165  0.8245 -0.9777
   20CHTO    C3 8426   6.347   0.430   0.640 -0.6997 -0.2934 -0.0915
   20CHTO   H16 8427   6.283   0.444   0.729 -1.9065 -1.5432 -0.7437
   20CHTO    N1 8428   6.457   0.337   0.676 -0.0913 -0.2671  0.2419
   20CHTO    H8 8429   6.509   0.304   0.587 -0.8634  0.0254 -0.3187
   20CHTO    H9 8430   6.417   0.251   0.727 -2.7343  0.7653 -0.0433
   20CHTO    C4 8431   6.240   0.384   0.529  0.1577 -0.0987 -0.3918
   20CHTO   H17 8432   6.298   0.343   0.447  1.5060  0.8182  0.0817
   20CHTO    O1 8433   6.151   0.488   0.490 -0.0657 -0.3636  0.2730
   20CHTO    C5 8434   6.206   0.607   0.439 -0.7614 -0.2709 -0.1336
   20CHTO   H18 8435   6.274   0.570   0.362  1.2005  1.0571  0.9205
   20CHTO   C16 8436   6.100   0.703   0.381 -0.6509 -0.1233  0.6607
   20CHTO   O11 8437   6.058   0.648   0.253 -0.4830 -0.6243 -0.1493
   20CHTO    H5 8438   6.016   0.565   0.270 -1.2865 -0.3044 -0.5375
   20CHTO    O3 8439   6.160   0.275   0.584  0.4723 -0.4970 -0.2800
   20CHTO    C6 8440   6.091   0.176   0.501  0.3690  0.2473 -1.2690
   20CHTO   H19 8441   6.082   0.204   0.396  0.8801  0.8456 -1.1587
   20CHTO    C8 8442   6.155   0.037   0.499 -0.8176 -0.4508 -0.9623
   20CHTO   H21 8443   6.163  -0.003   0.600 -0.1944  1.2265 -0.3321
   20CHTO    O7 8444   6.291   0.057   0.451  0.2180  0.4011  0.1655
   20CHTO    H2 8445   6.304   0.001   0.376 -2.6964 -2.8899  1.9547
   20CHTO   C12 8446   6.065  -0.050   0.397 -0.2252 -0.2007  0.0788
   20CHTO   H25 8447   6.075  -0.007   0.296 -0.0527 -0.0554  0.1570
   20CHTO    N3 8448   6.123  -0.193   0.387  0.1055 -0.5840  0.1197
   20CHTO   H12 8449   6.231  -0.196   0.394  0.1352 -1.0822 -0.4339
   20CHTO   H13 8450   6.094  -0.225   0.288  0.1660 -0.7167  0.1449
   20CHTO   C15 8451   5.917  -0.048   0.446  0.0498  0.1319 -0.5042
   20CHTO   H28 8452   5.896  -0.100   0.539  1.3177  0.4441 -0.0409
   20CHTO   O10 8453   5.811  -0.100   0.351 -0.1796 -0.2136  0.3118
   20CHTO    H4 8454   5.730  -0.102   0.397 -0.1019  2.4408  0.6184
   20CHTO    O5 8455   5.874   0.095   0.453 -0.1214 -0.4604  0.0179
   20CHTO   C10 8456   5.949   0.167   0.554 -0.3634 -0.1438 -0.5690
   20CHTO   H23 8457   5.945   0.125   0.655 -0.4040  2.3489  0.5078
   20CHTO   C17 8458   5.877   0.303   0.575  0.3677 -0.4526  0.5364
   20CHTO   O12 8459   5.744   0.283   0.615 -0.7711 -0.0963 -0.0081
   20CHTO    H6 8460   5.738   0.293   0.708  1.8602 -1.6458  0.3797
   21GLOH   H03 8461   3.935   8.944   0.893  0.9101 -1.2975  2.5159
   21GLOH    O1 8462   3.881   8.989   0.960 -0.1449  0.2625  0.6830
   21GLOH    C1 8463   3.897   9.132   0.936  0.1096  0.0915  0.1538
   21GLOH   H02 8464   3.812   9.161   0.874  0.5350 -1.9364 -1.4240
   21GLOH   H08 8465   3.981   9.156   0.871 -1.9329  1.5229 -2.0347
   21GLOH    C2 8466   3.896   9.218   1.067 -0.1009 -0.8782 -0.2442
   21GLOH   H04 8467   3.797   9.202   1.113  0.5774 -0.6777  1.3152
   21GLOH    O2 8468   3.992   9.181   1.166 -0.1493  0.5294  0.4985
   21GLOH   H05 8469   3.956   9.105   1.214 -1.5983  1.5833  1.1172
   21GLOH    C3 8470   3.900   9.370   1.022 -0.8968  0.3850  0.1021
   21GLOH   H06 8471   4.002   9.399   0.995 -0.8239 -0.5935 -0.6833
   21GLOH   H07 8472   3.878   9.420   1.117  0.7294  2.0067 -0.3450
   21GLOH    O3 8473   3.805   9.398   0.920  0.0288 -1.1644 -0.4349
   21GLOH   H01 8474   3.773   9.489   0.930 -1.0512 -1.4768 -0.9593
   22GLOH   H03 8475   3.604   8.290   2.525 -1.5438  0.5311  1.0018
   22GLOH    O1 8476   3.642   8.313   2.612 -0.1895 -0.5397  0.7117
   22GLOH    C1 8477   3.780   8.323   2.593 -0.0589 -0.3753  0.1703
   22GLOH   H02 8478   3.807   8.356   2.493  1.1414  0.5812  0.7902
   22GLOH   H08 8479   3.827   8.225   2.603  0.0134 -0.0936  3.1344
   22GLOH    C2 8480   3.846   8.424   2.684  0.8347  0.2575  0.1185
   22GLOH   H04 8481   3.890   8.368   2.767 -0.3929 -1.7115 -0.5221
   22GLOH    O2 8482   3.956   8.478   2.606  0.4606  0.4399 -0.4224
   22GLOH   H05 8483   3.982   8.568   2.633  1.4197  0.9519 -2.9598
   22GLOH    C3 8484   3.756   8.542   2.729 -0.4821 -0.1766 -0.3281
   22GLOH   H06 8485   3.737   8.605   2.642 -2.0589 -4.0497 -2.9261
   22GLOH   H07 8486   3.808   8.604   2.801  2.6876 -1.3645 -1.5025
   22GLOH    O3 8487   3.621   8.505   2.782 -0.5880  0.0965  0.4048
   22GLOH   H01 8488   3.589   8.433   2.725 -2.1048  0.0598  1.2681
   23GLOH   H03 8489   2.976   9.224   0.963  0.0301  1.0569 -1.6796
   23GLOH    O1 8490   3.065   9.262   0.956  0.3881  0.6935  0.6114
   23GLOH    C1 8491   3.062   9.343   0.835  0.4647 -0.5793 -0.5838
   23GLOH   H02 8492   3.150   9.407   0.830 -0.0730  0.1621 -0.7798
   23GLOH   H08 8493   2.980   9.414   0.829  1.4967  0.6782 -0.1012
   23GLOH    C2 8494   3.058   9.257   0.708 -0.5534 -0.1798 -0.3596
   23GLOH   H04 8495   2.985   9.176   0.721 -0.6669 -0.1104 -0.5670
   23GLOH    O2 8496   3.021   9.322   0.586 -0.1296 -0.1127  0.2466
   23GLOH   H05 8497   3.073   9.403   0.580 -2.0032  1.1689  0.9565
   23GLOH    C3 8498   3.188   9.170   0.705 -0.3439 -0.5605 -0.3190
   23GLOH   H06 8499   3.190   9.120   0.608 -1.9549 -1.2556 -0.0015
   23GLOH   H07 8500   3.191   9.097   0.785 -1.8088  1.5703  1.7209
   23GLOH    O3 8501   3.303   9.249   0.726 -0.7878 -0.5510  0.2447
   23GLOH   H01 8502   3.388   9.200   0.724  0.8607  2.1293  1.7527
   24GLOH   H03 8503   2.507   9.967   0.927  1.4919  1.5416  2.3728
   24GLOH    O1 8504   2.511  10.037   0.859  0.6770 -0.3366  0.3178
   24GLOH    C1 8505   2.603  10.145   0.889  0.5985 -0.1180  0.2788
   24GLOH   H02 8506   2.706  10.111   0.901 -0.5302 -2.8381  2.9820
   24GLOH   H08 8507   2.583  10.195   0.984 -1.8177 -1.2369  0.4078
   24GLOH    C2 8508   2.584  10.247   0.774 -0.1382  0.4609 -0.1119
   24GLOH   H04 8509   2.482  10.286   0.765 -0.1108  0.2869 -1.1786
   24GLOH    O2 8510   2.667  10.363   0.810 -0.2080  0.4424 -0.4820
   24GLOH   H05 8511   2.610  10.431   0.850  1.2165  1.2457  0.2241
   24GLOH    C3 8512   2.623  10.186   0.636  0.1009  0.6196 -0.0317
   24GLOH   H06 8513   2.729  10.161   0.638  0.1658  0.7554 -1.5134
   24GLOH   H07 8514   2.606  10.254   0.552  0.7519 -0.9177 -1.4305
   24GLOH    O3 8515   2.548  10.061   0.623 -0.1092  0.3341 -0.2458
   24GLOH   H01 8516   2.530  10.041   0.716  1.7488 -4.0561 -0.7183
   25GLOH   H03 8517   4.041   9.215   2.380  1.6348 -0.7441 -0.2624
   25GLOH    O1 8518   4.023   9.178   2.469  0.5156  0.4308  0.0132
   25GLOH    C1 8519   3.883   9.207   2.519  0.1765  1.0183 -0.0396
   25GLOH   H02 8520   3.867   9.184   2.625 -0.9044 -0.2019 -0.4523
   25GLOH   H08 8521   3.823   9.131   2.468  2.3955 -1.1220  0.4269
   25GLOH    C2 8522   3.836   9.345   2.485 -0.4253 -0.3681  0.0713
   25GLOH   H04 8523   3.818   9.354   2.376  1.9820 -1.4291 -0.4419
   25GLOH    O2 8524   3.706   9.349   2.553 -0.1427 -0.8858 -0.7376
   25GLOH   H05 8525   3.672   9.439   2.537  0.6732 -0.4463 -0.0753
   25GLOH    C3 8526   3.921   9.452   2.546  0.1046  0.2888  0.5359
   25GLOH   H06 8527   4.025   9.436   2.515 -0.1543 -0.4781  0.0348
   25GLOH   H07 8528   3.921   9.432   2.653  1.7323 -1.2797  0.2616
   25GLOH    O3 8529   3.884   9.584   2.523 -0.7983  0.5552  0.0592
   25GLOH   H01 8530   3.871   9.627   2.609 -0.6775  2.9702 -1.0976
   26GLOH   H03 8531   4.691   9.737   0.584  0.6504 -0.8645  3.3892
   26GLOH    O1 8532   4.756   9.804   0.610  0.5959  0.8906 -0.7143
   26GLOH    C1 8533   4.763   9.830   0.754 -0.3980  0.0930 -0.1092
   26GLOH   H02 8534   4.824   9.758   0.809 -0.3990  0.6340  0.5934
   26GLOH   H08 8535   4.663   9.812   0.792 -0.6425 -0.5426 -1.0164
   26GLOH    C2 8536   4.807   9.973   0.783  0.4388  0.1989 -0.7288
   26GLOH   H04 8537   4.730  10.045   0.754  0.8920  0.4453 -1.3433
   26GLOH    O2 8538   4.842   9.991   0.925 -0.4032  0.2335 -0.1845
   26GLOH   H05 8539   4.778   9.932   0.968 -1.6822  2.7959  1.4619
   26GLOH    C3 8540   4.926  10.009   0.694 -0.0553 -0.6097  0.5520
   26GLOH   H06 8541   5.002   9.931   0.705 -0.5778 -1.2112 -0.0257
   26GLOH   H07 8542   4.978  10.099   0.726  1.0485 -0.7255 -0.8253
   26GLOH    O3 8543   4.891  10.023   0.554 -0.5206  0.0093  0.4182
   26GLOH   H01 8544   4.857   9.932   0.547  0.4241 -0.1583 -2.8891
   27GLOH   H03 8545   2.998   9.594   0.599 -0.4224 -1.0305  1.1502
   27GLOH    O1 8546   3.067   9.556   0.541  0.0236  0.3387  0.7628
   27GLOH    C1 8547   3.177   9.638   0.498  0.5467 -0.3975  0.2982
   27GLOH   H02 8548   3.181   9.738   0.540 -1.1168 -0.9067  1.7685
   27GLOH   H08 8549   3.169   9.659   0.391  0.1279  3.2404  0.9799
   27GLOH    C2 8550   3.313   9.569   0.516 -0.7013 -0.5712 -0.5880
   27GLOH   H04 8551   3.293   9.466   0.482 -1.3621 -1.7520  3.0987
   27GLOH    O2 8552   3.416   9.641   0.446 -0.2387  0.0350  0.0831
   27GLOH   H05 8553   3.454   9.581   0.379 -0.0126 -0.4547  0.6511
   27GLOH    C3 8554   3.359   9.565   0.664 -0.1092  0.3560  0.1515
   27GLOH   H06 8555   3.454   9.512   0.670  0.6495  1.7798  0.8809
   27GLOH   H07 8556   3.286   9.512   0.725 -0.3422  0.7646  0.2255
   27GLOH    O3 8557   3.372   9.697   0.729  0.3919  0.7251 -0.3111
   27GLOH   H01 8558   3.426   9.756   0.674  1.7099  1.1703  1.4086
   28GLOH   H03 8559   4.824   0.260   1.676 -1.6554  1.0545 -0.7631
   28GLOH    O1 8560   4.850   0.213   1.595 -0.2725 -0.4677  0.5142
   28GLOH    C1 8561   4.779   0.093   1.585  0.1577  0.1043  0.0062
   28GLOH   H02 8562   4.839   0.011   1.624 -0.1943  0.2789  0.9306
   28GLOH   H08 8563   4.759   0.064   1.482  0.6090  1.2079 -0.4032
   28GLOH    C2 8564   4.639   0.089   1.659 -0.1256  0.0311  0.6231
   28GLOH   H04 8565   4.579   0.165   1.605 -0.5603 -1.4422 -1.0111
   28GLOH    O2 8566   4.576  -0.042   1.646 -0.2639 -0.3657  0.1272
   28GLOH   H05 8567   4.547  -0.063   1.556 -0.9361  0.5758  0.1198
   28GLOH    C3 8568   4.650   0.135   1.810  0.2423 -0.2571  0.1985
   28GLOH   H06 8569   4.701   0.054   1.862  0.2760 -0.5922 -0.3491
   28GLOH   H07 8570   4.549   0.138   1.852 -0.5048 -1.1127 -1.4856
   28GLOH    O3 8571   4.714   0.265   1.830 -0.6860 -0.0657  0.3543
   28GLOH   H01 8572   4.641   0.327   1.810 -1.6198 -0.9090  1.0648
   29GLOH   H03 8573   4.072   0.756   1.384  0.2656  1.1006  0.9478
   29GLOH    O1 8574   4.130   0.829   1.357  0.4413  0.4121 -0.5915
   29GLOH    C1 8575   4.146   0.933   1.459  0.4082 -0.6225 -0.2755
   29GLOH   H02 8576   4.196   0.902   1.551  0.1310  3.3760  1.3010
   29GLOH   H08 8577   4.045   0.958   1.490  0.6967 -0.1305  0.2763
   29GLOH    C2 8578   4.220   1.061   1.404 -0.0169  0.2376  0.1997
   29GLOH   H04 8579   4.230   1.134   1.486  2.0659  1.3985 -1.0455
   29GLOH    O2 8580   4.352   1.026   1.365  0.3441  0.4388  0.1083
   29GLOH   H05 8581   4.341   0.979   1.281  0.2159 -0.1994  0.4742
   29GLOH    C3 8582   4.141   1.122   1.285  0.0274 -0.0641  0.1455
   29GLOH   H06 8583   4.135   1.048   1.205 -1.4790  0.4846 -0.2581
   29GLOH   H07 8584   4.198   1.203   1.239  0.7646 -0.0785  1.0085
   29GLOH    O3 8585   4.018   1.170   1.326 -0.2749  0.0854  0.1101
   29GLOH   H01 8586   4.041   1.251   1.375 -2.1333  0.8758 -0.2794
   30GLOH   H03 8587   3.260   9.271   2.533  1.0722 -1.3508  0.2143
   30GLOH    O1 8588   3.283   9.290   2.626  0.1023  0.0501  0.1859
   30GLOH    C1 8589   3.261   9.428   2.659  0.6199  0.3254  0.0437
   30GLOH   H02 8590   3.214   9.445   2.756 -0.4212  0.3486 -0.4637
   30GLOH   H08 8591   3.188   9.475   2.593 -1.0916  0.4692  2.0134
   30GLOH    C2 8592   3.385   9.514   2.660 -0.6642 -0.3195 -0.2686
   30GLOH   H04 8593   3.350   9.610   2.699  0.8976 -0.2513  1.0065
   30GLOH    O2 8594   3.488   9.453   2.744  0.3145  0.7994 -0.3198
   30GLOH   H05 8595   3.462   9.374   2.794  2.2476  1.8276  2.4930
   30GLOH    C3 8596   3.430   9.539   2.515 -0.2020 -0.6924  0.2216
   30GLOH   H06 8597   3.355   9.606   2.473  0.3175  1.7470  2.9996
   30GLOH   H07 8598   3.424   9.442   2.467  1.0437 -0.4935 -0.3590
   30GLOH    O3 8599   3.565   9.599   2.501 -0.5343  0.5727 -0.0768
   30GLOH   H01 8600   3.573   9.689   2.539 -1.4580  1.1203 -1.1234
   31GLOH   H03 8601   3.540   1.302   1.197  1.8390  2.5290  0.2752
   31GLOH    O1 8602   3.510   1.331   1.109 -0.0828 -0.6522 -0.2075
   31GLOH    C1 8603   3.608   1.269   1.023  0.6579  0.2932 -0.0451
   31GLOH   H02 8604   3.630   1.167   1.056 -0.6903  0.1608  0.5000
   31GLOH   H08 8605   3.705   1.318   1.032  0.7850 -0.2281  1.6145
   31GLOH    C2 8606   3.577   1.261   0.873 -0.0969  0.1723  0.1129
   31GLOH   H04 8607   3.568   1.365   0.839 -0.0159  0.6764  1.5971
   31GLOH    O2 8608   3.679   1.195   0.788  0.2635 -0.2137  0.6016
   31GLOH   H05 8609   3.638   1.213   0.702  1.3251 -0.2991  0.0747
   31GLOH    C3 8610   3.441   1.197   0.860  0.7379  0.2287 -0.4695
   31GLOH   H06 8611   3.447   1.091   0.885 -0.0256  0.4306  0.6094
   31GLOH   H07 8612   3.405   1.202   0.757  0.4447  0.3021 -0.3654
   31GLOH    O3 8613   3.342   1.250   0.949  0.4376 -0.3130 -0.1033
   31GLOH   H01 8614   3.390   1.286   1.026  1.0560  2.5421 -1.7665
   32GLOH   H03 8615   2.941   0.571   0.176 -0.0430  0.8389 -0.3276
   32GLOH    O1 8616   2.925   0.661   0.209  0.2201  0.7569  0.0173
   32GLOH    C1 8617   3.041   0.739   0.218  0.0322  0.4570  0.7157
   32GLOH   H02 8618   3.126   0.674   0.203 -0.8906 -0.9367  1.3997
   32GLOH   H08 8619   3.057   0.797   0.309  1.5081 -0.1212  0.8279
   32GLOH    C2 8620   3.034   0.840   0.103 -0.8761 -0.1064 -0.6200
   32GLOH   H04 8621   2.928   0.867   0.093 -1.0598 -1.3340 -2.1298
   32GLOH    O2 8622   3.119   0.954   0.136  0.3341 -0.1422  0.0545
   32GLOH   H05 8623   3.102   1.007   0.056 -0.5638  1.2650  1.1616
   32GLOH    C3 8624   3.053   0.764  -0.026  0.3060 -0.4187  0.2496
   32GLOH   H06 8625   2.985   0.680  -0.016  0.0755 -0.2334  0.2547
   32GLOH   H07 8626   3.150   0.714  -0.017 -0.6780 -2.4086  0.0784
   32GLOH    O3 8627   3.040   0.833  -0.154 -0.2064  0.5554 -0.4269
   32GLOH   H01 8628   3.018   0.771  -0.226  0.9376 -0.3137 -0.0424
   33GLOH   H03 8629   3.818   9.908   2.320 -2.0723 -3.0965  0.1294
   33GLOH    O1 8630   3.842   9.897   2.226  0.1118  0.0100  0.2413
   33GLOH    C1 8631   3.722   9.933   2.159 -0.7935 -0.5212 -1.1013
   33GLOH   H02 8632   3.746   9.919   2.054 -0.7235 -3.1710 -0.7725
   33GLOH   H08 8633   3.679  10.032   2.176 -0.4905 -0.3582 -1.2701
   33GLOH    C2 8634   3.603   9.841   2.196  0.1399  0.0592  0.2080
   33GLOH   H04 8635   3.569   9.877   2.295 -0.9220 -0.4009  0.0193
   33GLOH    O2 8636   3.486   9.850   2.103  0.0565 -0.6648 -0.6837
   33GLOH   H05 8637   3.410   9.864   2.161  0.6550 -0.3486  0.0385
   33GLOH    C3 8638   3.635   9.694   2.221  0.3193 -0.8514 -0.4744
   33GLOH   H06 8639   3.543   9.638   2.232 -0.6257  0.3451 -2.2240
   33GLOH   H07 8640   3.696   9.689   2.312 -0.7254 -1.5434  0.1886
   33GLOH    O3 8641   3.709   9.637   2.114  0.4092 -0.6606  0.3079
   33GLOH   H01 8642   3.801   9.665   2.133 -0.3174  1.5155  0.7163
   34GLOH   H03 8643   3.298   9.904   0.307  0.7630  1.4653 -0.7844
   34GLOH    O1 8644   3.297   9.942   0.396 -0.0251 -0.2172 -0.0582
   34GLOH    C1 8645   3.207  10.055   0.398  0.3035 -0.2077  0.4664
   34GLOH   H02 8646   3.185  10.083   0.501 -2.2612 -0.8516  0.1333
   34GLOH   H08 8647   3.107  10.029   0.362 -0.0856  2.9825 -0.9645
   34GLOH    C2 8648   3.264  10.182   0.334 -0.6597 -0.3190  0.1562
   34GLOH   H04 8649   3.290  10.164   0.228  0.1982  1.6147  0.0277
   34GLOH    O2 8650   3.174  10.293   0.333  0.3341  0.4026 -0.1957
   34GLOH   H05 8651   3.183  10.355   0.407 -1.4984  2.2412 -1.4614
   34GLOH    C3 8652   3.393  10.225   0.406  1.2224 -0.6487  0.9206
   34GLOH   H06 8653   3.374  10.252   0.510  2.1518 -2.0038  1.4513
   34GLOH   H07 8654   3.444  10.302   0.349  0.6669 -0.3812  0.7806
   34GLOH    O3 8655   3.489  10.122   0.416  0.0117  0.6455  0.5509
   34GLOH   H01 8656   3.480  10.064   0.494 -0.0986  1.6191  1.2707
   35GLOH   H03 8657   4.135   0.801   0.907 -1.1374  1.0446 -0.5092
   35GLOH    O1 8658   4.212   0.855   0.933  0.0271 -0.5518 -0.5801
   35GLOH    C1 8659   4.224   0.944   0.828 -0.0470 -0.6450 -0.6094
   35GLOH   H02 8660   4.186   1.044   0.846 -0.0359 -0.9168  1.0838
   35GLOH   H08 8661   4.169   0.902   0.744  1.1492 -1.9024 -0.7821
   35GLOH    C2 8662   4.375   0.964   0.793  0.6805 -0.3696 -0.0738
   35GLOH   H04 8663   4.435   0.999   0.878 -1.2172 -0.5404  1.3866
   35GLOH    O2 8664   4.431   0.840   0.744  0.3640  0.2391 -0.3249
   35GLOH   H05 8665   4.479   0.791   0.813 -0.0294  0.6356  0.2374
   35GLOH    C3 8666   4.388   1.076   0.685 -0.0975  0.3414 -0.1409
   35GLOH   H06 8667   4.347   1.039   0.591 -2.1532 -0.4828  1.0377
   35GLOH   H07 8668   4.496   1.086   0.673  0.1612  1.8757  2.9053
   35GLOH    O3 8669   4.333   1.206   0.716 -0.2722  0.1627  0.0735
   35GLOH   H01 8670   4.343   1.264   0.638 -2.4045 -0.3006 -0.5609
   36GLOH   H03 8671   4.201   0.638   2.096 -0.2156  0.1343 -2.6577
   36GLOH    O1 8672   4.121   0.692   2.109  0.1735  0.0648  0.3925
   36GLOH    C1 8673   3.999   0.620   2.092  0.5662  0.6421 -0.1151
   36GLOH   H02 8674   4.018   0.523   2.048  1.8832  0.7683  0.1572
   36GLOH   H08 8675   3.935   0.676   2.024  0.3031 -1.0746 -1.2953
   36GLOH    C2 8676   3.908   0.593   2.214  0.8265 -0.3041 -0.0238
   36GLOH   H04 8677   3.823   0.530   2.183  1.1636 -1.0370  0.5363
   36GLOH    O2 8678   3.969   0.530   2.327  0.7101 -0.1523  0.0578
   36GLOH   H05 8679   3.918   0.452   2.354  1.0244  0.7221  3.4198
   36GLOH    C3 8680   3.847   0.730   2.252  0.8562  0.5034 -0.5601
   36GLOH   H06 8681   3.931   0.797   2.268  2.0063 -1.1770  0.6235
   36GLOH   H07 8682   3.794   0.718   2.347 -0.7646 -2.1003 -1.7249
   36GLOH    O3 8683   3.754   0.782   2.160  0.4062 -1.0815  0.2165
   36GLOH   H01 8684   3.672   0.732   2.176 -0.3768  0.1930  0.1700
   37GLOH   H03 8685   4.058   0.745   1.734  0.6877 -0.5542 -0.1751
   37GLOH    O1 8686   3.981   0.722   1.679  0.2167  0.0132  0.2504
   37GLOH    C1 8687   3.862   0.786   1.724 -0.2776  0.4449 -0.5321
   37GLOH   H02 8688   3.814   0.744   1.812  0.5744  5.6505  2.6771
   37GLOH   H08 8689   3.786   0.779   1.646 -2.9453 -1.3226  2.1269
   37GLOH    C2 8690   3.903   0.933   1.768  0.2328 -0.3863 -0.5796
   37GLOH   H04 8691   3.968   0.975   1.690 -0.9468  1.0941 -0.7831
   37GLOH    O2 8692   3.779   1.008   1.784 -0.0359 -0.6198 -0.9367
   37GLOH   H05 8693   3.759   1.050   1.699  1.9230  1.5859 -0.3653
   37GLOH    C3 8694   3.991   0.915   1.891  0.8651 -0.1905 -0.2357
   37GLOH   H06 8695   3.938   0.861   1.969  1.5484 -0.6525 -0.0891
   37GLOH   H07 8696   4.019   1.016   1.920  0.5275  0.4269 -1.9633
   37GLOH    O3 8697   4.114   0.843   1.856  0.2665 -0.2822  0.0554
   37GLOH   H01 8698   4.186   0.876   1.913  0.3891 -0.5254  0.0402
   38GLOH   H03 8699   3.687   9.705   0.889 -0.8788  0.3147  0.6507
   38GLOH    O1 8700   3.697   9.617   0.931 -0.2611  0.1724  0.2187
   38GLOH    C1 8701   3.626   9.609   1.056 -0.4243 -0.3791 -0.4951
   38GLOH   H02 8702   3.560   9.696   1.068  0.0987 -0.0843  0.2897
   38GLOH   H08 8703   3.700   9.610   1.136 -0.0360  0.3213 -0.8597
   38GLOH    C2 8704   3.548   9.474   1.074  0.1051 -0.3099  0.3808
   38GLOH   H04 8705   3.621   9.391   1.068  0.7533  0.4146 -3.1114
   38GLOH    O2 8706   3.495   9.474   1.209  0.0191  0.3103 -0.1312
   38GLOH   H05 8707   3.566   9.504   1.268  0.5183  1.0377 -1.0998
   38GLOH    C3 8708   3.435   9.462   0.970 -0.3961 -0.5898 -0.1423
   38GLOH   H06 8709   3.491   9.464   0.877  1.7527 -4.6380  0.9405
   38GLOH   H07 8710   3.384   9.559   0.975  0.5503 -0.1160  0.5341
   38GLOH    O3 8711   3.353   9.344   0.968  0.5248  0.3703 -0.3862
   38GLOH   H01 8712   3.328   9.323   0.877  1.8810  0.9753 -0.9184
   39GLOH   H03 8713   4.315   8.884   2.199 -0.1872 -2.3049  0.9264
   39GLOH    O1 8714   4.369   8.912   2.275  0.3994  0.1065 -0.2994
   39GLOH    C1 8715   4.477   8.815   2.282 -0.2032 -0.0843 -0.8650
   39GLOH   H02 8716   4.522   8.803   2.381  0.6116  2.2448 -0.9198
   39GLOH   H08 8717   4.559   8.845   2.218  1.2154 -0.3800  0.7869
   39GLOH    C2 8718   4.433   8.677   2.235  0.4789 -0.5518  0.1514
   39GLOH   H04 8719   4.524   8.616   2.226  0.6001 -0.8317  2.8722
   39GLOH    O2 8720   4.351   8.615   2.331  0.0652 -0.0134 -0.3769
   39GLOH   H05 8721   4.292   8.556   2.280 -0.5492  0.7759 -0.5835
   39GLOH    C3 8722   4.360   8.689   2.098 -0.4039 -0.3164  0.1471
   39GLOH   H06 8723   4.317   8.591   2.078  0.0805 -0.3274 -0.8698
   39GLOH   H07 8724   4.443   8.693   2.028  0.5928 -1.4649  1.2602
   39GLOH    O3 8725   4.261   8.796   2.080 -0.4597 -0.0747 -0.6276
   39GLOH   H01 8726   4.173   8.769   2.111  0.7555 -2.6649  0.7265
   40GLOH   H03 8727   3.569   8.840   0.998 -2.3254 -0.2974  1.1842
   40GLOH    O1 8728   3.535   8.786   0.925 -0.0415 -0.1802 -0.0335
   40GLOH    C1 8729   3.491   8.877   0.820 -0.5489  0.5600  0.0482
   40GLOH   H02 8730   3.384   8.888   0.832 -0.4023  1.6763  0.3555
   40GLOH   H08 8731   3.506   8.836   0.720  0.3390  0.3819  0.2491
   40GLOH    C2 8732   3.560   9.018   0.824  0.3948 -0.4664  0.9659
   40GLOH   H04 8733   3.666   8.990   0.814  1.0630  2.2019  0.0632
   40GLOH    O2 8734   3.509   9.106   0.714  0.1092 -0.2779 -0.2517
   40GLOH   H05 8735   3.555   9.080   0.632  0.0830 -0.3768 -0.2348
   40GLOH    C3 8736   3.532   9.078   0.962 -0.1954 -0.0124  0.0532
   40GLOH   H06 8737   3.426   9.098   0.978 -0.0263  1.4274 -0.5592
   40GLOH   H07 8738   3.575   9.178   0.968 -2.0283  0.9819 -2.4725
   40GLOH    O3 8739   3.591   8.988   1.064  0.6016 -0.1262 -0.2913
   40GLOH   H01 8740   3.588   9.049   1.140 -1.2071  0.2049 -0.6161
   41GLOH   H03 8741   3.369   0.403   2.058 -0.4538 -0.1570  0.6854
   41GLOH    O1 8742   3.388   0.491   2.021 -0.2538 -0.2960  0.4552
   41GLOH    C1 8743   3.260   0.551   1.992 -0.6994 -0.2353 -0.0512
   41GLOH   H02 8744   3.257   0.658   2.008 -0.9795 -0.2152 -0.2401
   41GLOH   H08 8745   3.191   0.502   2.060  0.1188 -1.4579 -0.0682
   41GLOH    C2 8746   3.217   0.547   1.849 -0.3236  0.3233 -0.3822
   41GLOH   H04 8747   3.223   0.443   1.813  0.5005 -0.3223  1.5548
   41GLOH    O2 8748   3.081   0.585   1.839  0.4676 -0.4018 -0.1835
   41GLOH   H05 8749   3.035   0.556   1.758 -1.7989  2.3663  0.0422
   41GLOH    C3 8750   3.312   0.642   1.767 -0.5065  0.1583 -0.9060
   41GLOH   H06 8751   3.277   0.645   1.663  1.2857  1.7835 -1.4844
   41GLOH   H07 8752   3.410   0.596   1.755 -0.2170  0.3994  0.4929
   41GLOH    O3 8753   3.317   0.774   1.821 -0.8834 -0.0928  0.5557
   41GLOH   H01 8754   3.224   0.801   1.836 -1.4599 -1.9311  0.3978
   42GLOH   H03 8755   3.097   1.174   1.623  0.8324 -0.1356 -2.6485
   42GLOH    O1 8756   3.170   1.119   1.658  0.3975  0.7912 -0.1822
   42GLOH    C1 8757   3.194   1.151   1.796  0.7222  0.5949 -0.6798
   42GLOH   H02 8758   3.255   1.070   1.838  1.9979  1.7088 -0.3583
   42GLOH   H08 8759   3.102   1.151   1.855  0.7733  2.6711 -0.5801
   42GLOH    C2 8760   3.270   1.275   1.831  0.4876 -0.7906  0.2724
   42GLOH   H04 8761   3.216   1.360   1.786  1.4237 -1.2546 -1.7981
   42GLOH    O2 8762   3.288   1.296   1.967  0.5341 -0.3061  0.2600
   42GLOH   H05 8763   3.333   1.379   1.991  0.5687 -1.0262  2.8954
   42GLOH    C3 8764   3.409   1.280   1.761  0.5003 -0.0371  0.0174
   42GLOH   H06 8765   3.469   1.206   1.815  1.3529  0.8989  0.3773
   42GLOH   H07 8766   3.451   1.379   1.778 -1.4991  0.7064  0.7685
   42GLOH    O3 8767   3.391   1.250   1.623 -0.4428  0.2733 -0.0311
   42GLOH   H01 8768   3.315   1.190   1.613  0.6946 -0.9453 -1.4209
   43GLOH   H03 8769   3.614   0.628   0.547 -0.8777 -1.4443  0.1512
   43GLOH    O1 8770   3.545   0.631   0.479 -0.5689 -0.0743 -0.1145
   43GLOH    C1 8771   3.601   0.600   0.349 -0.0466 -0.0525  0.0105
   43GLOH   H02 8772   3.585   0.497   0.319 -1.0630  0.5115 -1.4136
   43GLOH   H08 8773   3.708   0.617   0.341  0.3721 -1.6230  1.7634
   43GLOH    C2 8774   3.517   0.685   0.251 -0.1875 -0.4897 -0.1632
   43GLOH   H04 8775   3.532   0.792   0.271 -0.0087 -0.4116 -0.7256
   43GLOH    O2 8776   3.562   0.650   0.117  0.1143 -0.3381  0.1377
   43GLOH   H05 8777   3.658   0.659   0.109  0.4874  0.4042  4.2601
   43GLOH    C3 8778   3.368   0.648   0.257 -0.5986 -0.0471  0.7690
   43GLOH   H06 8779   3.362   0.545   0.224  0.1722  0.7289 -1.9384
   43GLOH   H07 8780   3.315   0.710   0.185 -0.5522  0.1767  0.9273
   43GLOH    O3 8781   3.302   0.669   0.374 -0.8156  0.2856 -0.1373
   43GLOH   H01 8782   3.374   0.657   0.439 -1.0715 -0.8464 -0.0624
   44GLOH   H03 8783   3.392   0.349   1.013  0.9696 -1.3162  1.1683
   44GLOH    O1 8784   3.477   0.373   1.054  0.8696  0.6985  0.2954
   44GLOH    C1 8785   3.578   0.281   1.008 -0.1798 -0.3128  0.3855
   44GLOH   H02 8786   3.552   0.259   0.904  1.7058  0.3390 -0.2442
   44GLOH   H08 8787   3.557   0.186   1.056  0.9052 -0.1585  1.1659
   44GLOH    C2 8788   3.722   0.334   1.019  0.2267  0.0022 -0.5509
   44GLOH   H04 8789   3.763   0.310   1.118 -3.7523 -1.0517  0.9456
   44GLOH    O2 8790   3.800   0.274   0.922 -0.2893  0.4621  0.8944
   44GLOH   H05 8791   3.887   0.248   0.956  0.1993 -0.6925 -1.1409
   44GLOH    C3 8792   3.720   0.488   1.012  0.4171  0.1191 -0.1827
   44GLOH   H06 8793   3.682   0.510   0.913 -0.7762  1.5028  0.5701
   44GLOH   H07 8794   3.825   0.519   1.021  0.2768  0.7892 -0.7601
   44GLOH    O3 8795   3.636   0.549   1.107  0.2561 -0.2817 -0.0336
   44GLOH   H01 8796   3.556   0.498   1.086  0.0496  0.1732 -0.3492
   45GLOH   H03 8797   4.133   9.484   1.927 -1.0633  3.0093 -0.8624
   45GLOH    O1 8798   4.172   9.520   2.009  0.2649 -0.7263  0.2860
   45GLOH    C1 8799   4.100   9.638   2.038 -0.1348 -0.2136  0.5895
   45GLOH   H02 8800   3.993   9.622   2.027 -0.1623 -0.5219  1.2931
   45GLOH   H08 8801   4.125   9.703   1.954 -0.2362 -0.6327  0.2347
   45GLOH    C2 8802   4.129   9.709   2.169 -1.0575 -0.0425 -0.5276
   45GLOH   H04 8803   4.234   9.706   2.200 -1.4853 -1.8450  0.8644
   45GLOH    O2 8804   4.095   9.849   2.165 -0.2171 -0.3476  0.0264
   45GLOH   H05 8805   3.999   9.865   2.169 -0.0339  1.3424 -1.6134
   45GLOH    C3 8806   4.051   9.643   2.288 -0.0011  0.1976  0.2940
   45GLOH   H06 8807   4.067   9.705   2.376 -3.0643 -0.5901  1.4490
   45GLOH   H07 8808   4.102   9.549   2.311  2.5287  1.3803 -0.2668
   45GLOH    O3 8809   3.909   9.620   2.263 -0.3682 -0.0288 -0.5875
   45GLOH   H01 8810   3.868   9.612   2.351 -2.1777  0.2524 -1.3883
   46GLOH   H03 8811   3.178   8.431   2.135  2.2632  0.0201 -2.9077
   46GLOH    O1 8812   3.100   8.465   2.088  0.2441 -0.6104 -0.1279
   46GLOH    C1 8813   3.156   8.527   1.967  0.2423 -0.0538  0.3875
   46GLOH   H02 8814   3.089   8.518   1.882 -0.1428  1.9183  0.4486
   46GLOH   H08 8815   3.248   8.479   1.931 -0.9819 -0.7419 -1.9144
   46GLOH    C2 8816   3.179   8.678   1.972 -0.8908 -1.0023  0.1666
   46GLOH   H04 8817   3.243   8.709   2.056  1.1342 -1.1440 -1.2861
   46GLOH    O2 8818   3.247   8.727   1.857 -0.0500  0.4302 -0.0132
   46GLOH   H05 8819   3.341   8.701   1.856 -0.3696 -0.8796  1.5590
   46GLOH    C3 8820   3.050   8.754   1.997  0.0751  0.2112 -0.4095
   46GLOH   H06 8821   2.987   8.692   2.061 -2.2877  0.0101 -2.8720
   46GLOH   H07 8822   2.984   8.762   1.911 -0.2075  5.0524  0.1284
   46GLOH    O3 8823   3.071   8.890   2.046 -0.4906  0.5268 -0.0711
   46GLOH   H01 8824   3.124   8.888   2.128 -5.5816 -1.5046  3.4313
   47GLOH   H03 8825   3.089  10.090  -0.050  1.6961 -1.3832 -2.1642
   47GLOH    O1 8826   3.124  10.180  -0.067  0.2140 -0.1720  0.7540
   47GLOH    C1 8827   3.011  10.268  -0.056  0.1678 -1.0643 -0.4318
   47GLOH   H02 8828   2.916  10.225  -0.089 -2.1933  2.3407  1.6046
   47GLOH   H08 8829   3.019  10.349  -0.128  0.4441  0.6882  1.5356
   47GLOH    C2 8830   2.986  10.333   0.083  0.1624 -0.4993 -0.0007
   47GLOH   H04 8831   3.084  10.366   0.119  1.4631 -4.0319 -0.0843
   47GLOH    O2 8832   2.900  10.446   0.078 -0.2559 -0.4468 -0.0584
   47GLOH   H05 8833   2.824  10.425   0.022 -3.3805  2.0553  3.0548
   47GLOH    C3 8834   2.926  10.237   0.181 -0.1529  0.3956  0.1421
   47GLOH   H06 8835   2.882  10.293   0.263 -1.5417 -1.1712  0.4853
   47GLOH   H07 8836   3.001  10.173   0.228 -1.1464  0.3439  1.6886
   47GLOH    O3 8837   2.820  10.159   0.125  0.0451 -0.5418  0.3283
   47GLOH   H01 8838   2.822  10.075   0.173  3.8880  0.1419  1.5565
   48GLOH   H03 8839   3.200   9.293   1.972  0.1631  1.4235  0.9848
   48GLOH    O1 8840   3.233   9.218   2.026 -1.0750  0.0970 -0.0623
   48GLOH    C1 8841   3.179   9.217   2.156  0.3258 -0.3664  0.1381
   48GLOH   H02 8842   3.144   9.117   2.182 -2.8818  0.9582  1.0673
   48GLOH   H08 8843   3.088   9.276   2.152  1.2619  1.0565 -0.9543
   48GLOH    C2 8844   3.278   9.274   2.261  0.0340  0.4580  0.1976
   48GLOH   H04 8845   3.311   9.374   2.228  0.0044  0.1189 -0.9012
   48GLOH    O2 8846   3.211   9.283   2.392 -0.8498 -0.3264  0.1158
   48GLOH   H05 8847   3.120   9.247   2.390 -1.4996  1.2504  0.4389
   48GLOH    C3 8848   3.396   9.173   2.273 -0.1809  0.3768 -0.5824
   48GLOH   H06 8849   3.448   9.157   2.178 -0.0494 -1.1647 -0.2590
   48GLOH   H07 8850   3.365   9.074   2.306  1.4494 -0.1955 -0.6884
   48GLOH    O3 8851   3.488   9.218   2.372  0.0062  0.5517  0.1021
   48GLOH   H01 8852   3.518   9.304   2.338  3.0868  0.0814  1.4905
   49GLOH   H03 8853   2.816   0.238   1.202 -0.9146  0.0825 -0.0546
   49GLOH    O1 8854   2.796   0.312   1.141 -0.1895  0.2646 -0.0803
   49GLOH    C1 8855   2.910   0.395   1.140  0.4499 -0.3530 -0.2494
   49GLOH   H02 8856   2.997   0.341   1.180  0.1890  0.3191  1.2707
   49GLOH   H08 8857   2.899   0.486   1.199 -0.5927  0.4773 -1.7129
   49GLOH    C2 8858   2.950   0.434   0.999 -0.1485  0.7514  1.1317
   49GLOH   H04 8859   2.975   0.345   0.939 -2.9962  0.4863  0.2810
   49GLOH    O2 8860   2.845   0.501   0.919  0.4370  0.1245  0.0555
   49GLOH   H05 8861   2.789   0.426   0.891  1.1384 -0.2558 -0.3407
   49GLOH    C3 8862   3.080   0.514   0.999  0.3073 -0.3267  0.1507
   49GLOH   H06 8863   3.051   0.609   1.042 -0.2643 -1.1356  1.5847
   49GLOH   H07 8864   3.101   0.535   0.894 -0.7610 -0.3272 -0.0669
   49GLOH    O3 8865   3.184   0.456   1.076  0.0550  0.2719 -0.1717
   49GLOH   H01 8866   3.242   0.527   1.108 -0.5144  0.4129  0.5544
   50GLOH   H03 8867   4.346   9.624   1.117  1.1906 -0.6318  1.6872
   50GLOH    O1 8868   4.389   9.707   1.090 -0.4810 -0.3204 -0.2273
   50GLOH    C1 8869   4.517   9.701   1.157  0.5973  0.0240 -0.6738
   50GLOH   H02 8870   4.573   9.616   1.119  0.1177  0.1217 -1.6143
   50GLOH   H08 8871   4.503   9.672   1.261 -0.7220 -0.6319 -1.0290
   50GLOH    C2 8872   4.601   9.825   1.157  0.4680 -0.3796  0.1087
   50GLOH   H04 8873   4.688   9.792   1.215 -1.0531  0.1291  2.8059
   50GLOH    O2 8874   4.637   9.863   1.023 -0.7591  0.2258  0.3105
   50GLOH   H05 8875   4.555   9.893   0.981  0.7140  1.3148 -1.8648
   50GLOH    C3 8876   4.532   9.939   1.236 -0.4585 -0.0329  0.3031
   50GLOH   H06 8877   4.439   9.973   1.189 -0.5089  1.8963  1.7531
   50GLOH   H07 8878   4.600  10.024   1.233 -1.3016  0.6877  1.1819
   50GLOH    O3 8879   4.495   9.913   1.374 -0.5646 -0.1742  0.5787
   50GLOH   H01 8880   4.407   9.872   1.383 -0.2833 -0.4196  2.3826
   51GLOH   H03 8881   3.115   9.260   1.544 -0.5779  0.0635  0.7547
   51GLOH    O1 8882   3.156   9.347   1.528 -0.4473 -0.0981  0.1898
   51GLOH    C1 8883   3.082   9.406   1.421 -0.7223  0.9106 -0.1080
   51GLOH   H02 8884   3.106   9.509   1.395  0.2034  0.4672 -1.0577
   51GLOH   H08 8885   2.976   9.406   1.445 -1.0380  0.5089 -1.4880
   51GLOH    C2 8886   3.108   9.325   1.289  0.3652  0.2021 -0.8982
   51GLOH   H04 8887   3.072   9.224   1.312  1.5038  0.4091  1.9993
   51GLOH    O2 8888   3.031   9.380   1.179  0.8563 -0.5582  0.3076
   51GLOH   H05 8889   3.052   9.317   1.108  2.5293 -0.1923  0.4494
   51GLOH    C3 8890   3.259   9.320   1.268 -0.6392  0.2268  0.0565
   51GLOH   H06 8891   3.316   9.317   1.361  1.3063 -0.0708 -1.1402
   51GLOH   H07 8892   3.279   9.416   1.220  1.1258 -0.6677 -1.0153
   51GLOH    O3 8893   3.301   9.218   1.177  0.0048 -0.4294  0.2362
   51GLOH   H01 8894   3.320   9.266   1.094  1.4394 -0.9791  0.2434
   52GLOH   H03 8895   3.155   8.752   1.725 -0.1293  0.0801  0.4322
   52GLOH    O1 8896   3.126   8.757   1.632  0.4461 -0.0416  0.2482
   52GLOH    C1 8897   3.037   8.875   1.613  0.3963  0.4506  0.2068
   52GLOH   H02 8898   2.963   8.869   1.693 -1.6757  0.5439 -1.6528
   52GLOH   H08 8899   2.986   8.866   1.518 -0.5291  1.6873  0.5761
   52GLOH    C2 8900   3.120   9.003   1.615 -0.3441  0.2263  0.2293
   52GLOH   H04 8901   3.216   8.986   1.564 -0.5889 -1.3957  0.2834
   52GLOH    O2 8902   3.047   9.113   1.549  0.0409  0.3975 -0.0241
   52GLOH   H05 8903   2.952   9.096   1.559  0.0631 -0.1068 -0.6841
   52GLOH    C3 8904   3.147   9.052   1.758  0.3746 -0.1586  0.6601
   52GLOH   H06 8905   3.191   9.151   1.747 -0.2144  0.0216 -0.1078
   52GLOH   H07 8906   3.227   8.992   1.803 -0.6311 -1.5639  0.5938
   52GLOH    O3 8907   3.028   9.050   1.844  0.0129  0.5426  0.0938
   52GLOH   H01 8908   3.050   8.998   1.923  1.5283  0.0645 -0.6132
   53GLOH   H03 8909   3.521   8.512   1.883  1.9762  0.1510  2.3378
   53GLOH    O1 8910   3.518   8.609   1.888 -0.5176  0.2332  0.3011
   53GLOH    C1 8911   3.638   8.667   1.838 -0.1489  0.0594 -0.2044
   53GLOH   H02 8912   3.713   8.589   1.823  1.0777  0.7765  1.9048
   53GLOH   H08 8913   3.677   8.736   1.913  0.1789 -0.6969  0.3174
   53GLOH    C2 8914   3.622   8.736   1.697 -0.8151 -0.4599  0.7654
   53GLOH   H04 8915   3.724   8.762   1.664 -0.1691 -2.2137  1.3539
   53GLOH    O2 8916   3.542   8.666   1.599 -0.3332  0.0735  0.3280
   53GLOH   H05 8917   3.520   8.576   1.629 -1.4062  0.9541  2.2278
   53GLOH    C3 8918   3.552   8.870   1.711  0.1018 -0.1852 -0.3478
   53GLOH   H06 8919   3.444   8.857   1.714 -0.5010  3.6203 -2.3720
   53GLOH   H07 8920   3.572   8.930   1.622 -0.4522  0.8588  0.2170
   53GLOH    O3 8921   3.592   8.953   1.817  0.2514 -0.0080 -0.6236
   53GLOH   H01 8922   3.512   8.968   1.871  0.6488  0.5100 -0.1726
   54GLOH   H03 8923   3.921   8.430   1.367 -0.0925 -0.2650 -0.4427
   54GLOH    O1 8924   3.903   8.437   1.463  0.2711 -0.1403 -0.3823
   54GLOH    C1 8925   3.927   8.571   1.499  0.4918  0.4372 -0.0291
   54GLOH   H02 8926   4.024   8.597   1.542 -0.2102  1.4462  0.9512
   54GLOH   H08 8927   3.850   8.588   1.574 -1.3235  1.1534 -2.0051
   54GLOH    C2 8928   3.881   8.671   1.394 -0.8775  0.1855 -0.2143
   54GLOH   H04 8929   3.772   8.660   1.377 -0.6055 -2.4699 -0.5018
   54GLOH    O2 8930   3.903   8.809   1.433 -0.3790  0.2036 -0.2094
   54GLOH   H05 8931   3.894   8.867   1.356  1.2761 -0.5958 -1.0294
   54GLOH    C3 8932   3.953   8.634   1.261  0.1453 -0.2341 -0.2156
   54GLOH   H06 8933   4.059   8.644   1.285  0.3554 -1.0538 -0.7895
   54GLOH   H07 8934   3.912   8.698   1.183  0.0458 -1.5767 -1.2677
   54GLOH    O3 8935   3.930   8.500   1.211  0.2778  0.2993  0.1278
   54GLOH   H01 8936   3.849   8.509   1.159  0.1452 -1.5840  0.0072
   55GLOH   H03 8937   4.688   0.468   1.340 -0.6953  0.2260 -0.3675
   55GLOH    O1 8938   4.655   0.559   1.353 -0.8282  0.1402 -0.1039
   55GLOH    C1 8939   4.660   0.588   1.495 -0.2879  0.0231  0.4002
   55GLOH   H02 8940   4.764   0.611   1.518  0.2154 -2.9520  1.3777
   55GLOH   H08 8941   4.629   0.501   1.553 -0.2418  0.0211  0.4216
   55GLOH    C2 8942   4.568   0.705   1.532  0.2368 -0.4338  0.6815
   55GLOH   H04 8943   4.472   0.685   1.483  0.3674 -3.5322  1.5687
   55GLOH    O2 8944   4.549   0.707   1.675  0.5513 -0.2289  0.2138
   55GLOH   H05 8945   4.541   0.800   1.701 -2.1336 -0.1712 -0.6341
   55GLOH    C3 8946   4.630   0.836   1.484 -0.5037  0.0829  0.2175
   55GLOH   H06 8947   4.663   0.819   1.381 -0.2066  0.3260  0.2715
   55GLOH   H07 8948   4.721   0.844   1.543  0.7522 -0.0711 -1.6484
   55GLOH    O3 8949   4.554   0.953   1.505  0.2610 -0.5033  0.4557
   55GLOH   H01 8950   4.475   0.970   1.450  1.2543 -2.7041 -1.7632
   56GLOH   H03 8951   2.958   8.456   1.185  0.4545 -1.5203 -1.3718
   56GLOH    O1 8952   2.889   8.489   1.125 -0.2353  0.5009  0.4877
   56GLOH    C1 8953   2.764   8.511   1.201 -0.1012  0.1764  0.6180
   56GLOH   H02 8954   2.707   8.421   1.180 -0.8935  0.0845  2.9956
   56GLOH   H08 8955   2.709   8.599   1.167  0.5588  0.6668  0.8091
   56GLOH    C2 8956   2.793   8.521   1.350 -0.4425 -0.0369  1.0587
   56GLOH   H04 8957   2.857   8.607   1.374 -1.4373  0.9696  0.1072
   56GLOH    O2 8958   2.676   8.532   1.434 -0.5633 -0.7216  0.3021
   56GLOH   H05 8959   2.705   8.561   1.522  1.5311  1.4572 -1.0265
   56GLOH    C3 8960   2.868   8.391   1.385 -0.3451  0.6197  0.4796
   56GLOH   H06 8961   2.808   8.310   1.344  0.7274  1.5118 -2.9546
   56GLOH   H07 8962   2.876   8.384   1.494  1.2544  1.1753  0.4096
   56GLOH    O3 8963   3.000   8.379   1.327 -0.0493 -0.0303  0.2729
   56GLOH   H01 8964   3.021   8.287   1.303  1.3468 -0.2463  2.2529
   57GLOH   H03 8965   2.645   8.682   1.378 -1.5888 -0.6979 -0.6133
   57GLOH    O1 8966   2.643   8.775   1.349 -0.6305 -0.3155  0.4719
   57GLOH    C1 8967   2.691   8.858   1.458  0.5487 -0.3234  0.6855
   57GLOH   H02 8968   2.778   8.816   1.508 -0.8670 -0.5234  3.0798
   57GLOH   H08 8969   2.610   8.866   1.531  0.0390 -0.9512  0.1937
   57GLOH    C2 8970   2.721   9.008   1.428 -0.0317 -0.1957  0.2002
   57GLOH   H04 8971   2.628   9.065   1.411  0.3193  0.2599 -0.2181
   57GLOH    O2 8972   2.787   9.065   1.547 -0.1064  0.1507 -0.3680
   57GLOH   H05 8973   2.728   9.127   1.594 -3.1542 -2.2437 -0.9017
   57GLOH    C3 8974   2.815   9.012   1.307 -0.9659 -0.4403 -0.2646
   57GLOH   H06 8975   2.920   8.990   1.323 -0.0892  2.7431 -1.2074
   57GLOH   H07 8976   2.815   9.117   1.278  2.9637 -0.1846  0.4210
   57GLOH    O3 8977   2.770   8.938   1.194  0.4294  0.3176 -0.1082
   57GLOH   H01 8978   2.700   8.876   1.223 -0.0047  1.2653  0.9046
   58GLOH   H03 8979   3.827   9.432   0.764  2.0794  0.7973  0.7223
   58GLOH    O1 8980   3.840   9.465   0.674 -0.0184 -0.0728  0.0529
   58GLOH    C1 8981   3.843   9.343   0.590  0.7311 -0.3574 -0.1260
   58GLOH   H02 8982   3.794   9.256   0.634 -0.5344  1.0274  1.2798
   58GLOH   H08 8983   3.946   9.309   0.579  0.8614 -0.4838  1.3373
   58GLOH    C2 8984   3.776   9.366   0.452 -0.0717 -0.8956 -0.2063
   58GLOH   H04 8985   3.843   9.436   0.399  1.4856 -1.5337  0.8803
   58GLOH    O2 8986   3.789   9.243   0.386  0.0933  0.5612  0.5420
   58GLOH   H05 8987   3.784   9.259   0.291 -1.5648  2.2438  0.8966
   58GLOH    C3 8988   3.633   9.418   0.464  0.3558 -0.0418  0.1383
   58GLOH   H06 8989   3.632   9.513   0.519 -3.1368 -0.0262  0.2125
   58GLOH   H07 8990   3.580   9.340   0.519  2.5480 -0.8886  1.1140
   58GLOH    O3 8991   3.577   9.444   0.331  0.1397 -0.6399  0.1785
   58GLOH   H01 8992   3.576   9.361   0.280 -1.2861 -1.1861  1.0708
   59GLOH   H03 8993   3.935   9.726   0.064  2.0195 -2.8195  0.8259
   59GLOH    O1 8994   3.861   9.663   0.052  0.2729 -0.5637 -0.5909
   59GLOH    C1 8995   3.781   9.667   0.175 -0.1961 -0.0662  0.7202
   59GLOH   H02 8996   3.842   9.691   0.262 -2.0510 -2.3483  2.7381
   59GLOH   H08 8997   3.739   9.567   0.192 -0.6926  0.0278  0.0740
   59GLOH    C2 8998   3.669   9.776   0.173 -0.1658  0.0365 -0.1365
   59GLOH   H04 8999   3.713   9.865   0.124  0.7130 -0.9777 -1.2027
   59GLOH    O2 9000   3.545   9.729   0.109  0.3672 -0.2084 -0.5577
   59GLOH   H05 9001   3.563   9.635   0.092 -1.5732 -1.0370  1.6142
   59GLOH    C3 9002   3.639   9.819   0.319  0.4341 -0.4850 -0.0733
   59GLOH   H06 9003   3.624   9.729   0.378 -1.4117  1.2000  2.1079
   59GLOH   H07 9004   3.540   9.865   0.321 -0.1917 -1.8055 -0.5504
   59GLOH    O3 9005   3.746   9.886   0.389 -0.0869  0.2875 -0.0424
   59GLOH   H01 9006   3.776   9.825   0.459  0.8548 -1.5907 -1.9964
   60GLOH   H03 9007   3.154   1.088   1.073  1.8492  0.1885 -0.2286
   60GLOH    O1 9008   3.156   1.048   1.162 -0.3988 -0.0453 -0.2659
   60GLOH    C1 9009   3.291   1.022   1.194  0.3711 -0.2659  0.0229
   60GLOH   H02 9010   3.306   1.009   1.301  0.9927  4.1009  0.5673
   60GLOH   H08 9011   3.358   1.103   1.165  0.3065 -0.0297  0.5438
   60GLOH    C2 9012   3.349   0.897   1.126 -0.3832 -0.0853 -1.2662
   60GLOH   H04 9013   3.342   0.905   1.017 -3.6388 -3.0009 -1.3609
   60GLOH    O2 9014   3.489   0.893   1.154 -0.0679 -0.1918 -0.4411
   60GLOH   H05 9015   3.505   0.891   1.250 -1.9678 -0.2647 -0.1218
   60GLOH    C3 9016   3.275   0.766   1.169  0.7533 -0.4634 -0.9765
   60GLOH   H06 9017   3.178   0.758   1.121 -0.0376 -1.8484  0.8112
   60GLOH   H07 9018   3.267   0.769   1.278 -0.3598  1.5815 -1.0743
   60GLOH    O3 9019   3.355   0.660   1.123  0.1893 -0.1858  1.1989
   60GLOH   H01 9020   3.448   0.685   1.135  0.3625  0.0707 -0.5591
   61GLOH   H03 9021   3.094  10.109   1.128  0.1752  0.3294  1.3194
   61GLOH    O1 9022   3.008  10.066   1.112  0.5599  0.0950 -0.2209
   61GLOH    C1 9023   3.014   9.968   1.005 -0.6491  0.2441 -0.5971
   61GLOH   H02 9024   3.054  10.016   0.916 -1.0547 -0.0163 -0.9191
   61GLOH   H08 9025   2.916   9.931   0.976 -0.9136  1.6537 -1.5240
   61GLOH    C2 9026   3.101   9.848   1.052  0.4038 -1.0577 -0.0784
   61GLOH   H04 9027   3.196   9.903   1.054  0.7000 -1.5709  0.1554
   61GLOH    O2 9028   3.067   9.809   1.181  0.6601 -0.1428 -0.4914
   61GLOH   H05 9029   3.141   9.756   1.216  0.0591  0.7631  2.3006
   61GLOH    C3 9030   3.109   9.730   0.953 -0.3607  0.0840  0.6843
   61GLOH   H06 9031   3.017   9.673   0.967 -0.0890 -1.3094 -2.7258
   61GLOH   H07 9032   3.194   9.666   0.974 -2.3858 -2.9772 -0.0568
   61GLOH    O3 9033   3.129   9.778   0.818 -0.1161  0.2111  0.8883
   61GLOH   H01 9034   3.205   9.740   0.771 -1.0468 -0.1602 -0.3436
   62GLOH   H03 9035   3.670   9.669   1.820  0.0546  3.4988 -2.3681
   62GLOH    O1 9036   3.732   9.622   1.761  0.4201  0.5571  0.2213
   62GLOH    C1 9037   3.657   9.502   1.720  0.7023  0.8506 -0.2611
   62GLOH   H02 9038   3.680   9.462   1.621  1.1550 -0.4323  0.3577
   62GLOH   H08 9039   3.552   9.531   1.713  0.9636  1.5529 -1.5800
   62GLOH    C2 9040   3.674   9.389   1.827  0.3438 -0.6916  0.1437
   62GLOH   H04 9041   3.778   9.352   1.828  0.5920  0.0108  0.1081
   62GLOH    O2 9042   3.630   9.446   1.949 -0.4970  0.2534  0.0166
   62GLOH   H05 9043   3.693   9.515   1.976  1.2512 -0.6911 -1.5255
   62GLOH    C3 9044   3.595   9.268   1.786  0.6527  0.5372 -0.1250
   62GLOH   H06 9045   3.492   9.303   1.773  0.2374 -1.0692 -1.4199
   62GLOH   H07 9046   3.586   9.189   1.861  1.8575  0.6291  0.1188
   62GLOH    O3 9047   3.634   9.214   1.658  0.3019  0.5582  0.1440
   62GLOH   H01 9048   3.555   9.176   1.617  0.8434 -1.6642  1.1081
   63GLOH   H03 9049   4.968   0.434   0.318  1.0355 -0.1226  1.5135
   63GLOH    O1 9050   4.890   0.488   0.339  0.5938 -0.2345  0.2243
   63GLOH    C1 9051   4.836   0.433   0.465  0.1069 -0.3338  0.9402
   63GLOH   H02 9052   4.736   0.391   0.457 -0.5750  1.0257  2.0669
   63GLOH   H08 9053   4.822   0.515   0.534 -1.5522 -1.0158  1.4420
   63GLOH    C2 9054   4.927   0.334   0.537 -0.6540 -0.0778  0.3681
   63GLOH   H04 9055   4.864   0.289   0.616  0.4547  2.0965  2.5559
   63GLOH    O2 9056   4.973   0.234   0.440  0.1692  0.6851  0.4411
   63GLOH   H05 9057   4.963   0.145   0.478  2.0701  0.2952  0.0822
   63GLOH    C3 9058   5.056   0.401   0.591  0.1770 -0.3951  0.6447
   63GLOH   H06 9059   5.090   0.465   0.509 -0.9989 -0.2221  0.2874
   63GLOH   H07 9060   5.131   0.323   0.601  1.5728  0.6604 -1.1541
   63GLOH    O3 9061   5.037   0.476   0.713 -0.2461  0.0106  0.8479
   63GLOH   H01 9062   5.131   0.489   0.737 -0.0501 -0.3756  0.3031
   64GLOH   H03 9063   4.352   0.210   2.121  2.3915 -0.4056 -0.5375
   64GLOH    O1 9064   4.364   0.305   2.138  0.5641 -0.2823  0.1922
   64GLOH    C1 9065   4.377   0.321   2.283 -0.4232 -0.0046 -0.0303
   64GLOH   H02 9066   4.411   0.423   2.299 -0.3786  0.0990 -0.7523
   64GLOH   H08 9067   4.456   0.257   2.323  1.0870  0.9066 -1.4900
   64GLOH    C2 9068   4.244   0.313   2.352  0.3479  0.0697  0.3589
   64GLOH   H04 9069   4.178   0.383   2.299  0.2363 -0.0785  0.3009
   64GLOH    O2 9070   4.196   0.178   2.340  0.7178 -0.4411  0.0724
   64GLOH   H05 9071   4.224   0.154   2.250  3.2692 -0.4431  0.8202
   64GLOH    C3 9072   4.255   0.358   2.494  0.1547 -0.3899  0.0786
   64GLOH   H06 9073   4.322   0.294   2.553 -1.3538 -0.3108  1.9137
   64GLOH   H07 9074   4.159   0.339   2.543 -0.4030 -0.2446 -0.9624
   64GLOH    O3 9075   4.302   0.494   2.502 -0.3856 -0.1842  0.3532
   64GLOH   H01 9076   4.223   0.549   2.515 -1.3040 -1.3775 -0.0923
   65GLOH   H03 9077   3.768   8.653   0.585 -0.6874  0.3675 -0.4350
   65GLOH    O1 9078   3.797   8.677   0.675 -0.0964 -0.0685 -0.5072
   65GLOH    C1 9079   3.879   8.568   0.731 -0.8018  0.1198 -0.0556
   65GLOH   H02 9080   3.962   8.546   0.663 -2.3798  0.5885 -2.1911
   65GLOH   H08 9081   3.817   8.478   0.734 -1.2525  0.3082 -2.5067
   65GLOH    C2 9082   3.929   8.588   0.873 -0.6510 -0.3570 -0.0294
   65GLOH   H04 9083   3.850   8.607   0.946 -0.9789  0.5571 -0.6183
   65GLOH    O2 9084   4.017   8.482   0.921  0.3283  0.3602 -0.5320
   65GLOH   H05 9085   4.009   8.451   1.013  1.1747 -3.1976 -1.5718
   65GLOH    C3 9086   4.015   8.719   0.870 -0.0374  0.0774 -0.6375
   65GLOH   H06 9087   4.119   8.691   0.851  0.1469 -0.5733  1.2730
   65GLOH   H07 9088   4.005   8.758   0.971 -0.1142 -0.2821 -0.5067
   65GLOH    O3 9089   3.978   8.829   0.790  0.6303 -0.4891 -0.2441
   65GLOH   H01 9090   3.917   8.782   0.731  1.0335  0.0099 -1.0653
   66GLOH   H03 9091   3.634   8.642   0.372  1.3332 -1.5834  0.3339
   66GLOH    O1 9092   3.701   8.681   0.432  0.2332 -0.4382  0.8215
   66GLOH    C1 9093   3.748   8.791   0.353  0.0860 -0.0197 -0.5709
   66GLOH   H02 9094   3.671   8.847   0.301 -0.1937  0.0660 -0.0631
   66GLOH   H08 9095   3.813   8.757   0.272 -0.2854 -1.4752 -0.2826
   66GLOH    C2 9096   3.828   8.895   0.445 -0.5731  0.5981  0.2406
   66GLOH   H04 9097   3.908   8.837   0.494  0.9718  0.7901 -1.9539
   66GLOH    O2 9098   3.900   8.997   0.365  0.2343 -0.8531 -0.2506
   66GLOH   H05 9099   3.860   9.082   0.390 -0.9906 -1.3990 -0.3249
   66GLOH    C3 9100   3.739   8.960   0.556 -0.4480  0.6724 -0.1143
   66GLOH   H06 9101   3.806   9.007   0.628 -1.2883 -1.8164  2.3911
   66GLOH   H07 9102   3.687   8.881   0.611 -0.1135 -0.1703 -0.9876
   66GLOH    O3 9103   3.653   9.056   0.498 -0.0219 -0.3678 -0.6457
   66GLOH   H01 9104   3.695   9.133   0.455  0.5122 -0.6978 -0.7237
   67GLOH   H03 9105   3.693   9.896   1.326  1.0468  0.2029 -0.6792
   67GLOH    O1 9106   3.658   9.848   1.404  0.5049  0.4991 -0.7387
   67GLOH    C1 9107   3.717   9.909   1.510 -0.0276 -0.9736  0.2851
   67GLOH   H02 9108   3.824   9.893   1.497  0.2665  0.0897  1.3505
   67GLOH   H08 9109   3.687   9.866   1.606  0.6492 -1.2024  0.3966
   67GLOH    C2 9110   3.679  10.061   1.530  0.3792  0.2634  0.1500
   67GLOH   H04 9111   3.571  10.071   1.547  0.3408 -0.5795  0.4277
   67GLOH    O2 9112   3.753  10.109   1.644  0.1976 -0.6111 -0.3817
   67GLOH   H05 9113   3.839  10.063   1.650  0.1069 -0.8574 -0.8681
   67GLOH    C3 9114   3.721  10.145   1.406 -0.0899 -1.1638 -0.1215
   67GLOH   H06 9115   3.829  10.139   1.391  0.0927  1.7465 -0.2906
   67GLOH   H07 9116   3.696  10.250   1.424  1.4863 -0.8102  0.0708
   67GLOH    O3 9117   3.646  10.101   1.291 -0.0513  0.5895 -0.2491
   67GLOH   H01 9118   3.550  10.101   1.306 -0.0179 -0.1102 -0.0221
   68GLOH   H03 9119   2.495   9.801   1.809 -0.9333 -0.4586 -2.4060
   68GLOH    O1 9120   2.421   9.751   1.850  0.0667  0.1631  0.2158
   68GLOH    C1 9121   2.428   9.756   2.000  0.4070 -0.0681 -0.0125
   68GLOH   H02 9122   2.398   9.657   2.034 -1.1477  0.9288  1.6513
   68GLOH   H08 9123   2.354   9.827   2.039 -2.0874 -3.2363  1.2234
   68GLOH    C2 9124   2.569   9.777   2.054 -0.3789 -0.6086 -0.1145
   68GLOH   H04 9125   2.561   9.804   2.160  1.0927 -0.1350 -0.1089
   68GLOH    O2 9126   2.657   9.661   2.035 -0.3376  0.4972  0.4545
   68GLOH   H05 9127   2.751   9.684   2.047 -0.5702  0.5726  2.4151
   68GLOH    C3 9128   2.632   9.901   1.996 -0.2435  0.1100 -0.4999
   68GLOH   H06 9129   2.736   9.909   2.030 -0.3612 -0.9151  0.0946
   68GLOH   H07 9130   2.579   9.990   2.031 -0.3288 -1.0208  2.3632
   68GLOH    O3 9131   2.628   9.885   1.852 -0.0091  0.0329  0.5823
   68GLOH   H01 9132   2.684   9.807   1.834 -0.0255  0.1029  0.2155
   69GLOH   H03 9133   4.237   1.096   1.931  1.6334 -0.9221 -0.3559
   69GLOH    O1 9134   4.240   1.137   1.843  0.2375  0.0905  0.0633
   69GLOH    C1 9135   4.367   1.112   1.786 -0.8769 -0.1789  0.3244
   69GLOH   H02 9136   4.446   1.177   1.825 -0.8468 -0.5420  0.8803
   69GLOH   H08 9137   4.357   1.125   1.678 -0.6498  1.9813  0.5350
   69GLOH    C2 9138   4.413   0.968   1.799  0.0377  0.4485  0.0750
   69GLOH   H04 9139   4.351   0.899   1.740  1.6587 -0.1006 -1.0200
   69GLOH    O2 9140   4.543   0.955   1.752 -0.4037 -0.0752  0.3921
   69GLOH   H05 9141   4.552   0.973   1.657  0.5648  2.1170  0.8623
   69GLOH    C3 9142   4.416   0.945   1.951 -0.0116  0.0274  0.3131
   69GLOH   H06 9143   4.482   1.022   1.993  0.5067  0.1174 -0.6445
   69GLOH   H07 9144   4.464   0.849   1.971  1.2179  0.6731  0.5655
   69GLOH    O3 9145   4.284   0.949   2.010 -0.0719 -0.3883 -0.3166
   69GLOH   H01 9146   4.286   0.903   2.096 -0.2964 -0.6165 -0.4332
   70GLOH   H03 9147   2.955   8.592   2.317  2.0833 -1.1323 -0.4316
   70GLOH    O1 9148   2.999   8.675   2.344 -0.0415 -0.5472  1.3406
   70GLOH    C1 9149   3.133   8.626   2.358  0.7236 -0.2808 -0.0124
   70GLOH   H02 9150   3.183   8.609   2.262 -0.7284 -0.2668 -0.7866
   70GLOH   H08 9151   3.142   8.531   2.409 -0.3865  0.1728  1.0386
   70GLOH    C2 9152   3.212   8.735   2.430 -0.1534 -0.1048 -0.1410
   70GLOH   H04 9153   3.167   8.753   2.529 -1.3760 -0.5182 -0.6170
   70GLOH    O2 9154   3.340   8.681   2.456  0.5160  0.1736 -0.5130
   70GLOH   H05 9155   3.348   8.647   2.546  1.4338  1.7146  0.0115
   70GLOH    C3 9156   3.209   8.874   2.356 -0.3061  0.1122  0.3434
   70GLOH   H06 9157   3.264   8.941   2.422  0.3296  1.0339 -1.0932
   70GLOH   H07 9158   3.107   8.913   2.351  0.2041  1.3535 -0.8177
   70GLOH    O3 9159   3.263   8.864   2.220  0.1678 -0.7462  0.2757
   70GLOH   H01 9160   3.359   8.854   2.235  0.5314 -1.5534 -2.2891
   71GLOH   H03 9161   4.140   9.744   1.090 -0.8482 -2.0701 -0.9895
   71GLOH    O1 9162   4.125   9.723   1.184  0.1561  0.5015 -0.1864
   71GLOH    C1 9163   4.022   9.816   1.233  0.2491  0.2768 -0.2728
   71GLOH   H02 9164   4.054   9.920   1.240  0.1837  0.5885 -3.6222
   71GLOH   H08 9165   3.979   9.785   1.328 -1.7146 -0.8763 -1.4915
   71GLOH    C2 9166   3.898   9.829   1.137 -0.2568  0.7996 -0.3005
   71GLOH   H04 9167   3.862   9.726   1.119 -0.2113  0.2669  2.4830
   71GLOH    O2 9168   3.777   9.892   1.187 -0.1632 -0.2806 -0.1097
   71GLOH   H05 9169   3.789   9.988   1.174  0.4809 -0.3347  0.0666
   71GLOH    C3 9170   3.934   9.867   0.993  0.1501  0.2011 -0.2624
   71GLOH   H06 9171   3.994   9.957   1.000  0.9382 -0.3460  0.2041
   71GLOH   H07 9172   3.843   9.884   0.936  0.8868  2.2848 -0.8350
   71GLOH    O3 9173   4.018   9.760   0.937 -0.3929  0.7216  0.0233
   71GLOH   H01 9174   4.027   9.776   0.842  1.3768  1.5461  0.3106
   72GLOH   H03 9175   3.500   8.326   1.197  0.6519 -0.0579  0.3862
   72GLOH    O1 9176   3.460   8.340   1.285  0.0487  0.3631  0.0481
   72GLOH    C1 9177   3.343   8.253   1.310 -0.1707  0.0473  0.4346
   72GLOH   H02 9178   3.252   8.314   1.313 -0.3683 -0.2565  0.6546
   72GLOH   H08 9179   3.354   8.206   1.408 -0.3106 -3.0451 -0.9699
   72GLOH    C2 9180   3.324   8.133   1.218 -0.1643  0.6231  0.2922
   72GLOH   H04 9181   3.306   8.165   1.115  2.1920 -2.2381 -1.0890
   72GLOH    O2 9182   3.432   8.035   1.213  0.8713 -0.7999 -0.0473
   72GLOH   H05 9183   3.515   8.073   1.178  1.2290 -1.5065  0.0224
   72GLOH    C3 9184   3.192   8.059   1.261  0.0363 -0.7798 -0.1167
   72GLOH   H06 9185   3.194   8.043   1.368 -2.5649  1.1696  0.2840
   72GLOH   H07 9186   3.175   7.971   1.199  0.9711 -0.6568 -0.5614
   72GLOH    O3 9187   3.084   8.154   1.228  0.2109 -0.1384 -0.3077
   72GLOH   H01 9188   3.081   8.180   1.134 -2.3294 -0.5738 -0.3927
   73GLOH   H03 9189   3.061   0.846   2.073 -0.5693 -0.2128 -0.6813
   73GLOH    O1 9190   3.156   0.861   2.088 -0.6900 -0.0392 -0.0712
   73GLOH    C1 9191   3.172   0.930   2.217 -0.4265  0.8578 -0.2752
   73GLOH   H02 9192   3.231   0.878   2.293 -0.8467  1.2222  0.3068
   73GLOH   H08 9193   3.075   0.957   2.259  0.2338 -0.3536  2.1554
   73GLOH    C2 9194   3.256   1.060   2.198  0.3423 -0.2739 -0.0854
   73GLOH   H04 9195   3.224   1.110   2.106  0.3969  0.9910  0.5640
   73GLOH    O2 9196   3.249   1.148   2.314 -0.2063  0.3588  0.1498
   73GLOH   H05 9197   3.289   1.234   2.291  1.3145 -0.6663 -1.1685
   73GLOH    C3 9198   3.406   1.035   2.170  0.3242 -0.1513  0.2760
   73GLOH   H06 9199   3.456   0.997   2.259  0.3397 -0.3258  0.1936
   73GLOH   H07 9200   3.444   1.133   2.143 -0.4855  0.5563  1.6365
   73GLOH    O3 9201   3.428   0.947   2.058 -0.1147 -0.4259 -0.2706
   73GLOH   H01 9202   3.353   0.885   2.066 -1.3569  1.1529  0.5794
   74GLOH   H03 9203   3.530   8.643   0.855  3.3086 -0.7660  0.7842
   74GLOH    O1 9204   3.525   8.552   0.821  0.4911 -0.4289  0.1396
   74GLOH    C1 9205   3.393   8.509   0.773 -0.2512  0.0744 -0.3047
   74GLOH   H02 9206   3.390   8.406   0.738 -0.9893 -0.1367  0.3592
   74GLOH   H08 9207   3.359   8.568   0.688 -0.8853  0.4350  0.1867
   74GLOH    C2 9208   3.278   8.525   0.880 -0.1619  0.1104  1.0171
   74GLOH   H04 9209   3.277   8.635   0.890 -1.5565  0.1069  1.0530
   74GLOH    O2 9210   3.151   8.482   0.820  0.5206  0.0432  0.2336
   74GLOH   H05 9211   3.083   8.537   0.862 -1.0096 -3.4519  2.5759
   74GLOH    C3 9212   3.302   8.454   1.012 -0.7685 -0.2290  0.3792
   74GLOH   H06 9213   3.388   8.502   1.057 -1.4915 -0.1438  1.7135
   74GLOH   H07 9214   3.318   8.349   0.988 -1.6093 -0.4028  0.5680
   74GLOH    O3 9215   3.184   8.480   1.098 -0.2015 -0.1122 -0.2463
   74GLOH   H01 9216   3.181   8.575   1.119 -0.2432  0.6776 -3.6189
   75GLOH   H03 9217   4.092   0.443   1.375  0.7320 -2.0082 -2.1434
   75GLOH    O1 9218   4.005   0.399   1.372 -0.4470  0.1506 -0.8686
   75GLOH    C1 9219   3.902   0.479   1.309 -0.1982  0.0832  0.3869
   75GLOH   H02 9220   3.826   0.404   1.288  0.2658 -0.2220 -0.2055
   75GLOH   H08 9221   3.931   0.526   1.215  0.7202 -1.5220 -0.1493
   75GLOH    C2 9222   3.852   0.580   1.416  0.4765 -0.0602  0.2976
   75GLOH   H04 9223   3.823   0.533   1.511 -2.1102  0.1938 -0.3330
   75GLOH    O2 9224   3.961   0.675   1.444  0.7368  0.0911 -0.4437
   75GLOH   H05 9225   3.978   0.689   1.539  2.5934 -1.0477 -0.6053
   75GLOH    C3 9226   3.726   0.654   1.369  0.8768  0.1587  0.4845
   75GLOH   H06 9227   3.751   0.715   1.282  1.7537 -3.2898 -1.7958
   75GLOH   H07 9228   3.704   0.720   1.453 -0.2318 -4.5125  4.0165
   75GLOH    O3 9229   3.620   0.569   1.342  0.1545 -0.0942  0.0300
   75GLOH   H01 9230   3.610   0.559   1.245 -1.5584  0.1337  0.1722
   76GLOH   H03 9231   3.680   1.307   2.028  1.8228 -1.3890 -0.5094
   76GLOH    O1 9232   3.742   1.382   2.038 -0.4894  0.6017 -0.4861
   76GLOH    C1 9233   3.826   1.382   1.919 -0.1913  0.9943 -0.5202
   76GLOH   H02 9234   3.859   1.481   1.889  0.7408  0.8409 -0.0209
   76GLOH   H08 9235   3.771   1.346   1.832 -0.4729  1.1306 -0.4017
   76GLOH    C2 9236   3.959   1.312   1.938  0.3404 -0.4967 -0.5523
   76GLOH   H04 9237   3.940   1.207   1.962  1.3100 -0.4639  0.3949
   76GLOH    O2 9238   4.043   1.317   1.818  0.6273 -0.4810  0.1233
   76GLOH   H05 9239   4.107   1.245   1.828  1.9169  0.3580 -1.6755
   76GLOH    C3 9240   4.025   1.396   2.056 -0.3913  0.2042  0.3158
   76GLOH   H06 9241   4.018   1.502   2.033  1.3975  0.5653  1.2863
   76GLOH   H07 9242   4.132   1.377   2.069  0.3290  2.6484 -1.6401
   76GLOH    O3 9243   3.962   1.382   2.184 -0.1961  0.0596  0.7072
   76GLOH   H01 9244   3.866   1.390   2.168 -0.1602  1.5532  1.1864
   77GLOH   H03 9245   4.265   0.311   1.703  0.6063  0.6099  1.4297
   77GLOH    O1 9246   4.295   0.392   1.658 -0.0180 -0.0524 -0.2040
   77GLOH    C1 9247   4.316   0.492   1.760  0.2806  0.1642 -0.4607
   77GLOH   H02 9248   4.224   0.498   1.819  0.1029 -1.6567 -0.5342
   77GLOH   H08 9249   4.332   0.589   1.713  0.6685  0.5904  0.5279
   77GLOH    C2 9250   4.434   0.463   1.853  0.5242  0.0050 -0.0558
   77GLOH   H04 9251   4.432   0.356   1.878  0.7194  0.3401  1.3961
   77GLOH    O2 9252   4.560   0.494   1.795 -0.1170 -0.1862  0.0514
   77GLOH   H05 9253   4.573   0.584   1.761  0.0791 -0.7402 -1.4053
   77GLOH    C3 9254   4.428   0.541   1.991 -0.3401  0.3877  0.2902
   77GLOH   H06 9255   4.448   0.644   1.964  0.1223 -0.3266 -2.2232
   77GLOH   H07 9256   4.512   0.503   2.049 -0.5428 -0.9037 -0.2499
   77GLOH    O3 9257   4.306   0.522   2.055  0.1919  0.5082 -0.4387
   77GLOH   H01 9258   4.313   0.437   2.102 -0.5300  0.6495 -0.0789
   78GLOH   H03 9259   2.699   9.566   2.444  1.8363  0.1658 -0.5922
   78GLOH    O1 9260   2.707   9.663   2.447  0.1534  0.3059 -0.1465
   78GLOH    C1 9261   2.608   9.722   2.539  0.2371 -0.1630 -0.6727
   78GLOH   H02 9262   2.603   9.682   2.641 -1.2363 -0.6049 -0.9124
   78GLOH   H08 9263   2.513   9.697   2.492  0.4817 -3.4227  0.4215
   78GLOH    C2 9264   2.615   9.871   2.542 -0.2184 -0.3060 -0.3206
   78GLOH   H04 9265   2.585   9.910   2.443  0.4517  0.7834 -0.0995
   78GLOH    O2 9266   2.521   9.921   2.639  0.2753 -0.3753  0.5999
   78GLOH   H05 9267   2.513  10.017   2.625 -1.9441 -0.7446 -1.1565
   78GLOH    C3 9268   2.756   9.925   2.584  0.1857  0.1172  0.2211
   78GLOH   H06 9269   2.767   9.914   2.691  2.4755  0.3192  0.0326
   78GLOH   H07 9270   2.753  10.031   2.559  0.7507  0.1754  0.4073
   78GLOH    O3 9271   2.855   9.850   2.517 -0.9911  0.6147 -0.2099
   78GLOH   H01 9272   2.806   9.776   2.478  0.7836 -1.0414  0.6390
   79GLOH   H03 9273   4.586   9.241   1.911 -1.6431 -0.1144 -0.3824
   79GLOH    O1 9274   4.610   9.320   1.860  0.4369 -0.2127  0.4033
   79GLOH    C1 9275   4.572   9.433   1.937  0.1528  0.1802 -0.0073
   79GLOH   H02 9276   4.642   9.516   1.927 -1.0597  1.5264  2.3517
   79GLOH   H08 9277   4.566   9.409   2.043  0.6574  1.5292  0.3412
   79GLOH    C2 9278   4.448   9.496   1.875  0.9167  0.0001 -0.3389
   79GLOH   H04 9279   4.365   9.424   1.880  0.1124  1.0866  3.2636
   79GLOH    O2 9280   4.409   9.611   1.957 -0.1457 -0.0334 -0.0770
   79GLOH   H05 9281   4.316   9.593   1.981 -1.1733  2.0727 -2.2778
   79GLOH    C3 9282   4.469   9.539   1.726  0.0970  1.4303 -0.2856
   79GLOH   H06 9283   4.552   9.610   1.724  0.0219  1.4938 -1.2456
   79GLOH   H07 9284   4.387   9.601   1.687  0.0469  1.2700 -0.4370
   79GLOH    O3 9285   4.496   9.430   1.643 -0.5589 -0.1646 -0.4405
   79GLOH   H01 9286   4.555   9.367   1.689 -0.0894  1.0234  0.6072
   80GLOH   H03 9287   3.556   8.596   0.183 -2.7612  0.5609 -2.9637
   80GLOH    O1 9288   3.510   8.660   0.241 -0.2913 -0.0860 -0.1577
   80GLOH    C1 9289   3.370   8.624   0.252 -0.3082  0.0021 -0.7410
   80GLOH   H02 9290   3.332   8.676   0.341 -1.2845  0.1304 -1.2247
   80GLOH   H08 9291   3.365   8.516   0.267  0.3414  0.0016 -0.5257
   80GLOH    C2 9292   3.302   8.676   0.123 -0.4029  0.6050 -0.2263
   80GLOH   H04 9293   3.291   8.785   0.128  0.8744  0.6976  1.2945
   80GLOH    O2 9294   3.370   8.621   0.001 -0.0531  0.2488  0.1079
   80GLOH   H05 9295   3.463   8.648  -0.007  0.3641 -0.6148  1.7898
   80GLOH    C3 9296   3.161   8.612   0.125  0.3496  0.4222 -0.7017
   80GLOH   H06 9297   3.173   8.507   0.152 -1.2451  0.6415  0.9267
   80GLOH   H07 9298   3.120   8.640   0.028 -0.3261  0.2971 -0.4537
   80GLOH    O3 9299   3.075   8.674   0.226  0.2650 -0.1590 -0.2170
   80GLOH   H01 9300   3.058   8.762   0.188 -1.1189  0.4978  1.8021
   81GLOH   H03 9301   3.103   9.719   2.527  1.1823 -2.0519 -0.6566
   81GLOH    O1 9302   3.107   9.739   2.432 -0.5834  0.1681 -0.3023
   81GLOH    C1 9303   3.104   9.619   2.351  0.8923 -0.4638  0.4237
   81GLOH   H02 9304   3.018   9.557   2.378 -0.2398  0.5405 -0.8860
   81GLOH   H08 9305   3.191   9.553   2.364  1.1970  0.0378  0.9559
   81GLOH    C2 9306   3.095   9.652   2.202 -0.2337 -0.5727 -0.0192
   81GLOH   H04 9307   3.167   9.728   2.168  1.1865 -2.2633 -0.8147
   81GLOH    O2 9308   3.099   9.538   2.113  0.2926 -0.4440  0.3326
   81GLOH   H05 9309   3.193   9.523   2.095  0.6608  1.4438  0.6304
   81GLOH    C3 9310   2.958   9.722   2.183  0.7141  0.2136  0.3400
   81GLOH   H06 9311   2.963   9.816   2.238  1.8109 -0.3932  1.3188
   81GLOH   H07 9312   2.882   9.660   2.230  0.3115 -1.2049 -2.1095
   81GLOH    O3 9313   2.914   9.738   2.044  0.1001  0.2238 -0.1958
   81GLOH   H01 9314   2.975   9.798   1.996 -1.0232  0.9419 -0.7420
   82GLOH   H03 9315   3.547   8.681   1.410 -0.6124  2.0624 -0.1329
   82GLOH    O1 9316   3.529   8.686   1.314  0.6836  0.2709 -0.4886
   82GLOH    C1 9317   3.475   8.814   1.295  0.0449  0.6487  0.6228
   82GLOH   H02 9318   3.464   8.818   1.186 -0.5027  0.9596  0.6879
   82GLOH   H08 9319   3.544   8.891   1.330  0.6613  1.1173 -1.5120
   82GLOH    C2 9320   3.338   8.829   1.357  0.2941 -0.4694  0.0170
   82GLOH   H04 9321   3.358   8.806   1.463 -0.4711  2.3671  0.8096
   82GLOH    O2 9322   3.298   8.969   1.346 -0.2482 -0.5057  0.8092
   82GLOH   H05 9323   3.258   8.976   1.257 -0.8539  0.3894  1.1550
   82GLOH    C3 9324   3.236   8.731   1.297  0.2825  0.0594  0.1058
   82GLOH   H06 9325   3.143   8.759   1.346  0.1446  0.1096 -0.1826
   82GLOH   H07 9326   3.255   8.630   1.333 -3.7122 -0.8637 -0.1355
   82GLOH    O3 9327   3.210   8.727   1.160 -0.5303 -0.1086  0.4199
   82GLOH   H01 9328   3.191   8.819   1.134  0.6650 -0.0011 -0.1379
   83GLOH   H03 9329   4.424   0.462   1.064  0.1712 -0.1782  2.8182
   83GLOH    O1 9330   4.353   0.395   1.065 -0.2572  0.2075  0.7794
   83GLOH    C1 9331   4.266   0.437   1.175 -0.6092  1.0556  0.7909
   83GLOH   H02 9332   4.160   0.418   1.161 -0.4443  2.2425 -2.4897
   83GLOH   H08 9333   4.269   0.545   1.184 -0.9181  1.1265  0.0080
   83GLOH    C2 9334   4.313   0.394   1.313  0.2786  0.7850 -0.0033
   83GLOH   H04 9335   4.418   0.424   1.329 -0.0341  0.8637  1.9239
   83GLOH    O2 9336   4.244   0.467   1.415 -0.0611  0.9423 -0.1852
   83GLOH   H05 9337   4.284   0.463   1.504  0.8520  0.3020 -0.6136
   83GLOH    C3 9338   4.306   0.244   1.344  0.4708 -0.4653 -0.2098
   83GLOH   H06 9339   4.344   0.243   1.446 -0.2738  1.4613  0.1068
   83GLOH   H07 9340   4.368   0.174   1.288  0.6425 -0.0532 -0.5329
   83GLOH    O3 9341   4.174   0.195   1.365  0.0519  0.4914  0.2016
   83GLOH   H01 9342   4.113   0.269   1.379  1.0689  2.1542 -3.5556
   84GLOH   H03 9343   4.083   1.082  -0.019 -0.0822 -1.7377  0.0310
   84GLOH    O1 9344   4.081   1.079   0.079  0.3447  0.4104  0.1487
   84GLOH    C1 9345   4.102   0.944   0.115 -0.1828  0.2034 -0.6429
   84GLOH   H02 9346   4.160   0.931   0.207 -1.2788  0.1985  0.0636
   84GLOH   H08 9347   4.151   0.881   0.041 -1.0486  0.0049 -1.0521
   84GLOH    C2 9348   3.968   0.881   0.139 -0.3111 -0.3696 -0.4197
   84GLOH   H04 9349   4.003   0.777   0.142  2.4567  0.5581  1.5307
   84GLOH    O2 9350   3.910   0.946   0.255  0.1818  0.1349  0.1946
   84GLOH   H05 9351   3.895   1.039   0.233  0.6801 -0.0437 -0.8962
   84GLOH    C3 9352   3.870   0.902   0.031 -0.8790 -0.0246 -0.7636
   84GLOH   H06 9353   3.849   1.009   0.029 -2.7801 -0.3288  1.3852
   84GLOH   H07 9354   3.777   0.853   0.059 -0.1462 -1.9014 -1.5495
   84GLOH    O3 9355   3.919   0.859  -0.099 -0.1384 -0.1253 -0.3739
   84GLOH   H01 9356   3.887   0.918  -0.170 -0.2262 -0.1708 -0.3718
   85GLOH   H03 9357   4.231   9.937   0.554  0.0024  0.1147 -0.3876
   85GLOH    O1 9358   4.217   9.840   0.562 -0.3115  0.1504 -0.4885
   85GLOH    C1 9359   4.343   9.780   0.606  0.7177 -0.1596  0.5751
   85GLOH   H02 9360   4.429   9.826   0.557  0.5154  0.4563  0.7932
   85GLOH   H08 9361   4.342   9.675   0.579  0.3766 -0.3873  1.4745
   85GLOH    C2 9362   4.354   9.799   0.760 -0.0357 -0.0658  0.0405
   85GLOH   H04 9363   4.253   9.778   0.797 -0.2811 -1.7318 -1.5202
   85GLOH    O2 9364   4.439   9.703   0.826  0.2924 -0.0553  0.3309
   85GLOH   H05 9365   4.442   9.726   0.920 -1.6003 -0.9363  0.6369
   85GLOH    C3 9366   4.389   9.946   0.786 -0.7325  0.0930 -0.3792
   85GLOH   H06 9367   4.310  10.009   0.745  0.1499  2.1845  1.1039
   85GLOH   H07 9368   4.480   9.971   0.731 -0.2877  1.9296  1.1750
   85GLOH    O3 9369   4.417   9.970   0.922  0.3020 -0.5164  0.1246
   85GLOH   H01 9370   4.338  10.016   0.956  1.2013  0.2505  1.2416
   86GLOH   H03 9371   4.039   9.304   2.176  0.6770 -0.0150 -0.9774
   86GLOH    O1 9372   4.082   9.260   2.252 -0.3075 -0.0906 -0.4559
   86GLOH    C1 9373   4.193   9.182   2.206 -0.3578  0.3023  0.2835
   86GLOH   H02 9374   4.198   9.093   2.268 -1.5438  2.4510  3.5997
   86GLOH   H08 9375   4.290   9.230   2.211 -0.2001 -0.1700  1.7032
   86GLOH    C2 9376   4.185   9.149   2.054  0.3543 -0.3924  0.0540
   86GLOH   H04 9377   4.190   9.247   2.004 -1.0156 -0.5159 -0.3474
   86GLOH    O2 9378   4.296   9.076   2.000  0.2009 -0.1854  0.2262
   86GLOH   H05 9379   4.277   9.047   1.909 -2.0620 -0.5545  0.7871
   86GLOH    C3 9380   4.051   9.073   2.025  0.2771 -0.7876  0.3156
   86GLOH   H06 9381   4.049   8.986   2.091  0.2333 -0.3643  0.8754
   86GLOH   H07 9382   4.054   9.036   1.923 -0.5267  1.6913 -0.6491
   86GLOH    O3 9383   3.937   9.145   2.058 -0.3296 -0.2239  0.5601
   86GLOH   H01 9384   3.876   9.156   1.983 -0.1964 -0.3020  0.4397
   87GLOH   H03 9385   2.713   9.986   0.354  0.4887  1.6211 -2.9128
   87GLOH    O1 9386   2.809   9.967   0.353  0.2695  0.1548 -0.0775
   87GLOH    C1 9387   2.824   9.834   0.413 -0.0569  0.1835 -0.0160
   87GLOH   H02 9388   2.911   9.781   0.375  0.7517  0.9924  0.7048
   87GLOH   H08 9389   2.743   9.771   0.376 -0.9309  1.4776 -0.3309
   87GLOH    C2 9390   2.844   9.837   0.567 -0.1793  0.3402 -0.0091
   87GLOH   H04 9391   2.744   9.869   0.601  0.3762 -0.2906  2.3192
   87GLOH    O2 9392   2.856   9.700   0.619  0.5868  0.1757 -0.6756
   87GLOH   H05 9393   2.768   9.673   0.649  0.9056 -0.6977 -0.5050
   87GLOH    C3 9394   2.964   9.924   0.601  0.5921 -0.2107 -0.0703
   87GLOH   H06 9395   3.051   9.880   0.553  0.3872 -0.4260 -0.2447
   87GLOH   H07 9396   2.987   9.915   0.707  1.0405  1.7497  0.0281
   87GLOH    O3 9397   2.949  10.062   0.558  0.4379  0.1348 -0.5012
   87GLOH   H01 9398   2.899  10.061   0.475 -0.0607 -0.2174 -0.2030
   88GLOH   H03 9399   3.797   0.450   1.891  0.0744 -1.0817 -0.9891
   88GLOH    O1 9400   3.832   0.392   1.961 -0.5134 -0.3013 -0.0356
   88GLOH    C1 9401   3.915   0.287   1.906 -0.1105 -0.0532 -0.4573
   88GLOH   H02 9402   4.020   0.318   1.907 -0.8340  2.5800  2.0042
   88GLOH   H08 9403   3.883   0.251   1.808  2.7312  0.1441 -1.5057
   88GLOH    C2 9404   3.910   0.162   1.995  0.1391  0.2927 -0.4805
   88GLOH   H04 9405   3.812   0.115   1.976 -0.1015  1.2616 -1.6966
   88GLOH    O2 9406   4.010   0.065   1.950 -0.1343 -0.1074 -0.0182
   88GLOH   H05 9407   4.087   0.104   1.905 -0.3050  1.4797  1.0181
   88GLOH    C3 9408   3.920   0.195   2.143  0.1784  0.2437 -0.5457
   88GLOH   H06 9409   4.013   0.251   2.157  0.6150 -0.5296 -0.3520
   88GLOH   H07 9410   3.927   0.102   2.199  0.2091  0.8882  0.5257
   88GLOH    O3 9411   3.801   0.265   2.183  0.2221 -0.4380  0.0563
   88GLOH   H01 9412   3.788   0.342   2.125 -1.9728 -1.1872 -0.4840
   89GLOH   H03 9413   3.881   8.414   1.619 -0.2494 -0.0682 -0.2389
   89GLOH    O1 9414   3.858   8.410   1.714 -0.0521 -0.2464 -0.2005
   89GLOH    C1 9415   3.982   8.389   1.778 -0.6166 -0.2508 -0.5045
   89GLOH   H02 9416   4.066   8.432   1.723 -0.6087  0.4710  0.0730
   89GLOH   H08 9417   3.997   8.281   1.787  0.7132 -0.1765 -1.6015
   89GLOH    C2 9418   3.979   8.436   1.924 -0.0905  0.2758 -0.1295
   89GLOH   H04 9419   4.080   8.448   1.965 -0.0512  1.5165 -0.5559
   89GLOH    O2 9420   3.916   8.565   1.924 -0.0349  0.1006  0.0714
   89GLOH   H05 9421   3.845   8.577   1.989 -0.5337  2.2188 -0.8338
   89GLOH    C3 9422   3.903   8.336   2.010 -0.6581 -1.0394 -0.0447
   89GLOH   H06 9423   3.915   8.360   2.115 -0.0549 -1.8893  0.0874
   89GLOH   H07 9424   3.955   8.241   1.997 -2.0013 -1.6036 -1.3910
   89GLOH    O3 9425   3.769   8.317   1.970  0.2915  0.3296 -0.4500
   89GLOH   H01 9426   3.752   8.321   1.874  0.7844  1.8014 -0.4862
   90GLOH   H03 9427   3.853   1.572   1.376 -0.9677  0.6785 -0.0268
   90GLOH    O1 9428   3.823   1.497   1.430 -0.1350 -0.1347 -0.6646
   90GLOH    C1 9429   3.776   1.394   1.337  0.1530 -0.3463  0.8636
   90GLOH   H02 9430   3.863   1.340   1.299  1.8826  2.3639  0.8839
   90GLOH   H08 9431   3.729   1.441   1.251  1.6753 -0.2221  0.0761
   90GLOH    C2 9432   3.676   1.310   1.414 -0.1374 -0.6634 -0.3486
   90GLOH   H04 9433   3.606   1.383   1.458  1.2507 -1.2687  2.9556
   90GLOH    O2 9434   3.606   1.216   1.328 -0.5420 -0.2587  0.1205
   90GLOH   H05 9435   3.546   1.166   1.386 -1.2359 -0.7622 -0.9994
   90GLOH    C3 9436   3.739   1.236   1.530  0.0539 -0.3711  0.2943
   90GLOH   H06 9437   3.780   1.305   1.605 -1.3698  1.9304 -0.9716
   90GLOH   H07 9438   3.822   1.180   1.488  0.9742  1.0913  0.1001
   90GLOH    O3 9439   3.649   1.145   1.600 -0.3416  0.2017 -0.5163
   90GLOH   H01 9440   3.565   1.179   1.637 -0.8185 -0.4164 -1.0171
   91GLOH   H03 9441   4.421   0.367   0.785  0.7997  1.3388 -1.4412
   91GLOH    O1 9442   4.338   0.383   0.735 -0.2774  0.5755  0.0764
   91GLOH    C1 9443   4.330   0.526   0.727 -0.2039  0.1591  0.2189
   91GLOH   H02 9444   4.396   0.560   0.647 -1.0092 -2.5394 -1.6811
   91GLOH   H08 9445   4.342   0.583   0.819 -2.0785  1.7560 -0.4693
   91GLOH    C2 9446   4.184   0.568   0.682 -0.4864 -0.0847 -0.3064
   91GLOH   H04 9447   4.189   0.675   0.657  1.0958  0.0014  0.3113
   91GLOH    O2 9448   4.161   0.506   0.557  0.1917 -0.2420  0.0829
   91GLOH   H05 9449   4.098   0.569   0.519 -1.3027  1.0680  4.4351
   91GLOH    C3 9450   4.068   0.558   0.784 -0.9730  0.6265  0.5780
   91GLOH   H06 9451   4.096   0.486   0.861 -0.6665  1.7262  1.5095
   91GLOH   H07 9452   3.973   0.518   0.747  0.5339 -2.5849 -0.0140
   91GLOH    O3 9453   4.044   0.681   0.850 -0.3521  0.2568 -0.4810
   91GLOH   H01 9454   3.999   0.740   0.786 -0.3772  1.1004  0.2971
   92GLOH   H03 9455   3.556   8.415   2.339 -1.3178  1.2420  0.2161
   92GLOH    O1 9456   3.554   8.329   2.384 -0.1630  1.1837  0.1670
   92GLOH    C1 9457   3.442   8.258   2.342  0.1417 -0.2470 -0.0785
   92GLOH   H02 9458   3.349   8.256   2.400 -0.7093  0.5973 -1.4052
   92GLOH   H08 9459   3.465   8.152   2.334 -0.6608 -0.3817 -0.6064
   92GLOH    C2 9460   3.384   8.285   2.206 -0.0698  0.6078 -0.1906
   92GLOH   H04 9461   3.321   8.198   2.183  2.1945 -1.1783  0.1923
   92GLOH    O2 9462   3.305   8.408   2.219 -0.2851  0.1577  0.2349
   92GLOH   H05 9463   3.356   8.488   2.243  2.0673 -1.2909  0.2616
   92GLOH    C3 9464   3.493   8.304   2.104  0.2296 -0.1112  0.5438
   92GLOH   H06 9465   3.453   8.307   2.002  0.1258  1.1765  0.6033
   92GLOH   H07 9466   3.553   8.214   2.108 -1.6660 -1.3642  1.0880
   92GLOH    O3 9467   3.576   8.415   2.119 -0.3987 -0.2507 -0.0631
   92GLOH   H01 9468   3.658   8.396   2.070  0.9941  0.4505  1.9302
   93GLOH   H03 9469   2.818   9.622   1.799 -0.7852 -0.3455  1.5785
   93GLOH    O1 9470   2.749   9.685   1.770  0.1551  0.2554  0.6080
   93GLOH    C1 9471   2.701   9.639   1.642 -0.0956 -0.2236  0.4978
   93GLOH   H02 9472   2.605   9.685   1.618  0.1685 -0.1600 -0.4817
   93GLOH   H08 9473   2.684   9.532   1.627 -0.6686 -0.0779  0.0446
   93GLOH    C2 9474   2.794   9.683   1.527 -1.0168  0.5715  0.4782
   93GLOH   H04 9475   2.888   9.628   1.538 -2.1181 -1.8638 -1.7976
   93GLOH    O2 9476   2.730   9.644   1.403 -0.0119  0.1201  0.2531
   93GLOH   H05 9477   2.801   9.653   1.337  2.0091 -0.5211  2.2806
   93GLOH    C3 9478   2.823   9.831   1.543  0.4204 -0.6984 -0.4877
   93GLOH   H06 9479   2.867   9.851   1.640 -1.5860  1.1145  0.0892
   93GLOH   H07 9480   2.722   9.872   1.542  0.4756 -0.4815  1.8232
   93GLOH    O3 9481   2.909   9.886   1.438 -0.5799  0.4929  0.0439
   93GLOH   H01 9482   3.001   9.856   1.445 -1.2749 -2.8149 -3.1459
   94GLOH   H03 9483   3.669   1.036   0.698  0.5536  0.3389 -0.8360
   94GLOH    O1 9484   3.658   0.966   0.632 -0.8930  0.0018 -0.2642
   94GLOH    C1 9485   3.672   1.021   0.499 -0.0266  0.3655  0.1089
   94GLOH   H02 9486   3.672   0.946   0.420 -0.4468  2.0339 -1.5251
   94GLOH   H08 9487   3.771   1.066   0.489 -0.0739  0.4746  0.1373
   94GLOH    C2 9488   3.567   1.127   0.469  0.0955  0.5997  0.0028
   94GLOH   H04 9489   3.468   1.085   0.494  0.1816 -0.5524 -1.5475
   94GLOH    O2 9490   3.589   1.248   0.545  0.2580 -0.2642  0.0004
   94GLOH   H05 9491   3.521   1.310   0.512 -1.9552 -1.8570  1.4258
   94GLOH    C3 9492   3.557   1.162   0.318  0.7710  0.2062  0.0793
   94GLOH   H06 9493   3.653   1.208   0.292  1.8097 -1.2686  1.2106
   94GLOH   H07 9494   3.487   1.245   0.314  0.9436  0.2747 -2.6115
   94GLOH    O3 9495   3.513   1.058   0.228 -0.1291  0.3548 -0.0369
   94GLOH   H01 9496   3.426   1.034   0.265 -0.2536 -1.3663 -1.3817
   95GLOH   H03 9497   3.156   9.987   1.923  1.0808  0.2600  0.4343
   95GLOH    O1 9498   3.123   9.897   1.939  0.1346  0.3601 -0.8469
   95GLOH    C1 9499   3.218   9.796   1.893 -0.7561  0.1274  0.1978
   95GLOH   H02 9500   3.170   9.702   1.923  0.6892 -0.1794  1.6318
   95GLOH   H08 9501   3.309   9.797   1.952 -0.1585 -0.4079 -0.7102
   95GLOH    C2 9502   3.255   9.803   1.740 -0.1069  0.9318 -0.5415
   95GLOH   H04 9503   3.312   9.895   1.724 -1.0006  1.7791  1.0715
   95GLOH    O2 9504   3.355   9.692   1.712  0.6461 -0.1791  0.7942
   95GLOH   H05 9505   3.440   9.736   1.729  1.0089  0.3386 -2.0783
   95GLOH    C3 9506   3.127   9.805   1.648  0.2417 -0.3371 -0.4103
   95GLOH   H06 9507   3.068   9.891   1.680  0.3054 -0.8777  1.2266
   95GLOH   H07 9508   3.068   9.719   1.679 -1.1295  0.7695  0.1078
   95GLOH    O3 9509   3.166   9.809   1.507  0.2479 -0.1083  0.3083
   95GLOH   H01 9510   3.262   9.826   1.498  0.2661  0.5799  1.6701
   96GLOH   H03 9511   3.399   9.792   0.126 -1.5475 -0.4334 -3.0587
   96GLOH    O1 9512   3.317   9.829   0.164  0.0521 -0.1015  0.2936
   96GLOH    C1 9513   3.249   9.902   0.058  0.5035 -0.5460  0.6142
   96GLOH   H02 9514   3.273   9.872  -0.044  0.2887  1.1138  0.0535
   96GLOH   H08 9515   3.275  10.007   0.050 -2.8743  0.3190  0.1137
   96GLOH    C2 9516   3.093   9.896   0.086  0.5653  0.8174  0.3793
   96GLOH   H04 9517   3.073   9.924   0.190 -3.4450 -0.0660 -0.0865
   96GLOH    O2 9518   3.017   9.967  -0.015  0.2268  0.2589  0.0196
   96GLOH   H05 9519   3.001   9.907  -0.090 -0.0185  0.3289  0.0161
   96GLOH    C3 9520   3.057   9.747   0.078  0.3310 -0.7456  0.2050
   96GLOH   H06 9521   2.949   9.749   0.095 -0.4544  0.2230 -4.4266
   96GLOH   H07 9522   3.101   9.694   0.163 -0.7793 -1.0575  0.5850
   96GLOH    O3 9523   3.090   9.663  -0.038 -0.6392 -0.0320 -0.3697
   96GLOH   H01 9524   3.014   9.604  -0.054 -0.1220 -0.4561 -1.2595
   97GLOH   H03 9525   2.954   9.942   2.438 -0.5756 -0.1426  0.9890
   97GLOH    O1 9526   3.003  10.000   2.377 -0.1199 -0.5587  0.9552
   97GLOH    C1 9527   2.901  10.084   2.320 -0.0902  0.4638 -0.5673
   97GLOH   H02 9528   2.896  10.180   2.372  0.8251  1.2791 -1.9379
   97GLOH   H08 9529   2.800  10.053   2.343 -0.5795  2.6713  0.3974
   97GLOH    C2 9530   2.920  10.095   2.169 -0.0525 -0.0348 -0.8828
   97GLOH   H04 9531   2.924   9.993   2.128 -0.7026  0.1000 -1.2895
   97GLOH    O2 9532   2.806  10.169   2.111 -0.3644 -0.1898  0.0517
   97GLOH   H05 9533   2.802  10.162   2.014 -0.5023  0.0716  0.0385
   97GLOH    C3 9534   3.048  10.167   2.132  0.6232  0.1625 -0.5432
   97GLOH   H06 9535   3.048  10.263   2.185  1.0169  0.5551 -1.2476
   97GLOH   H07 9536   3.056  10.190   2.026  2.1570  1.0282 -0.2447
   97GLOH    O3 9537   3.159  10.091   2.186 -0.1681 -0.3947  0.3490
   97GLOH   H01 9538   3.121  10.038   2.258 -2.2034 -2.0724 -1.8737
   98GLOH   H03 9539   4.039   1.253   2.254  0.8866  0.3428 -0.3471
   98GLOH    O1 9540   4.105   1.212   2.313  0.1589  0.5059  0.5837
   98GLOH    C1 9541   4.187   1.108   2.248 -0.2434 -0.0534  0.1511
   98GLOH   H02 9542   4.293   1.135   2.245 -0.4202  0.5390 -0.7166
   98GLOH   H08 9543   4.145   1.105   2.148  0.1964  2.1986 -0.1178
   98GLOH    C2 9544   4.173   0.969   2.323 -0.1970  1.0557  0.0825
   98GLOH   H04 9545   4.068   0.938   2.314 -0.6157  2.6825 -0.8889
   98GLOH    O2 9546   4.248   0.866   2.248 -0.2285 -0.1532  0.1403
   98GLOH   H05 9547   4.200   0.784   2.267  0.7767  0.0591  4.0912
   98GLOH    C3 9548   4.218   0.970   2.467 -0.1002 -0.5700 -0.1855
   98GLOH   H06 9549   4.313   1.022   2.453 -0.5826 -0.2682 -2.5195
   98GLOH   H07 9550   4.232   0.869   2.505  1.4514 -0.0350  0.6932
   98GLOH    O3 9551   4.128   1.054   2.542  0.2067 -0.0914  0.0867
   98GLOH   H01 9552   4.107   1.128   2.482  0.4566  1.4341  1.8238
   99GLOH   H03 9553   3.713   0.422   2.441  3.1252  1.3852 -0.9060
   99GLOH    O1 9554   3.682   0.514   2.432 -0.6848  0.2904 -0.0625
   99GLOH    C1 9555   3.696   0.574   2.559 -0.0793 -0.3390  0.1546
   99GLOH   H02 9556   3.608   0.565   2.622  0.3108 -2.3076  0.4578
   99GLOH   H08 9557   3.705   0.682   2.549 -2.6321 -0.1758 -1.0129
   99GLOH    C2 9558   3.807   0.507   2.646 -0.1719 -0.0814 -0.2361
   99GLOH   H04 9559   3.911   0.526   2.614  0.6765 -0.0601  2.4207
   99GLOH    O2 9560   3.793   0.561   2.783  0.1248 -0.0890 -0.5853
   99GLOH   H05 9561   3.870   0.540   2.838  0.2418  1.1190 -0.2633
   99GLOH    C3 9562   3.784   0.357   2.653 -0.3614 -0.0839  0.1974
   99GLOH   H06 9563   3.691   0.337   2.705 -1.2421 -1.6611 -1.9008
   99GLOH   H07 9564   3.865   0.320   2.716 -1.6299  0.2484  2.0502
   99GLOH    O3 9565   3.771   0.294   2.523 -0.4974 -0.0758  0.1835
   99GLOH   H01 9566   3.840   0.228   2.505  1.4654  1.1265  2.8504
  100GLOH   H03 9567   3.271   9.156   0.018  1.2375 -0.0551  2.3491
  100GLOH    O1 9568   3.222   9.084   0.062 -0.1441 -0.3341  0.4114
  100GLOH    C1 9569   3.236   9.087   0.205  0.5445 -0.4361  0.0123
  100GLOH   H02 9570   3.246   8.990   0.253 -2.7460  0.0497  1.8467
  100GLOH   H08 9571   3.145   9.134   0.244 -0.2346 -0.5133 -1.6751
  100GLOH    C2 9572   3.358   9.165   0.254  0.1211 -0.1863  0.3999
  100GLOH   H04 9573   3.440   9.118   0.198  0.9530  0.3718  1.1338
  100GLOH    O2 9574   3.355   9.297   0.206 -0.0914 -0.3019 -0.3463
  100GLOH   H05 9575   3.271   9.331   0.243 -1.1346 -0.8730 -2.1214
  100GLOH    C3 9576   3.391   9.148   0.402  0.5174  0.2677 -0.3089
  100GLOH   H06 9577   3.315   9.203   0.457  0.3140 -0.9995  0.6888
  100GLOH   H07 9578   3.483   9.204   0.419 -0.2926  1.6568 -0.4137
  100GLOH    O3 9579   3.402   9.011   0.449 -0.5470 -0.3356  0.2658
  100GLOH   H01 9580   3.491   8.972   0.440  1.0289  3.1815 -0.4797
  101GLOH   H03 9581   3.641   9.905   2.470 -0.0311  0.0700  0.2112
  101GLOH    O1 9582   3.729   9.946   2.456  0.0122  0.1618  0.7523
  101GLOH    C1 9583   3.806   9.936   2.580  0.2775 -0.6253 -0.2521
  101GLOH   H02 9584   3.798   9.831   2.609 -3.4054 -0.6351 -1.0447
  101GLOH   H08 9585   3.765   9.993   2.663 -1.9288 -0.4966 -1.3968
  101GLOH    C2 9586   3.950   9.981   2.558 -0.1931 -0.3755  0.5983
  101GLOH   H04 9587   3.997   9.905   2.495 -1.7712  0.2040 -1.3500
  101GLOH    O2 9588   3.958  10.109   2.486 -0.0565 -0.2032 -0.0208
  101GLOH   H05 9589   4.022  10.120   2.414  0.0718  3.4225  0.5624
  101GLOH    C3 9590   4.009   9.992   2.700 -0.0418 -0.4772 -0.7863
  101GLOH   H06 9591   3.962  10.077   2.749  2.3329  0.0723  0.5977
  101GLOH   H07 9592   4.115  10.013   2.690  0.6752 -0.7294  4.6652
  101GLOH    O3 9593   3.993   9.884   2.786 -0.1267  0.6252  0.3720
  101GLOH   H01 9594   4.049   9.916   2.858 -0.7729  1.8603  0.3414
  102GLOH   H03 9595   2.623   9.509   0.677 -1.7229  0.9106 -1.6839
  102GLOH    O1 9596   2.631   9.598   0.716  0.4378 -0.1466  0.4091
  102GLOH    C1 9597   2.538   9.643   0.819  0.1280  0.2548 -0.5041
  102GLOH   H02 9598   2.505   9.564   0.887 -1.1243  1.6002  0.4966
  102GLOH   H08 9599   2.446   9.680   0.773 -0.5068 -1.3402 -0.5471
  102GLOH    C2 9600   2.610   9.752   0.894  0.2006  0.1209 -0.5426
  102GLOH   H04 9601   2.642   9.818   0.812 -0.8701  0.9237 -0.3149
  102GLOH    O2 9602   2.528   9.824   0.989  0.2597  0.0662  0.5599
  102GLOH   H05 9603   2.521   9.768   1.068  1.2591 -1.5020 -0.4320
  102GLOH    C3 9604   2.737   9.691   0.962  1.2015  0.1995 -0.1193
  102GLOH   H06 9605   2.778   9.773   1.022 -1.4535  3.2969 -2.3512
  102GLOH   H07 9606   2.803   9.673   0.877  0.5433  2.3052 -1.1181
  102GLOH    O3 9607   2.720   9.572   1.038 -0.0991  0.1286  0.7135
  102GLOH   H01 9608   2.793   9.580   1.102  1.6309  0.8843 -1.3074
  103GLOH   H03 9609   4.045   8.875   1.502 -0.4875 -1.7901  4.2636
  103GLOH    O1 9610   4.105   8.943   1.539  0.4309 -0.3192  0.2752
  103GLOH    C1 9611   4.054   9.079   1.532 -0.0555 -0.2763 -0.0580
  103GLOH   H02 9612   3.985   9.095   1.449 -0.6695 -1.7058  0.1644
  103GLOH   H08 9613   4.140   9.142   1.510  0.0178 -1.2543 -2.8176
  103GLOH    C2 9614   3.977   9.123   1.654 -0.3979  0.7484 -0.4044
  103GLOH   H04 9615   4.054   9.141   1.730  0.6165  0.2157 -1.2877
  103GLOH    O2 9616   3.903   9.249   1.640 -0.1957  0.3900 -0.2971
  103GLOH   H05 9617   3.814   9.234   1.676 -1.1570  3.9068 -1.0168
  103GLOH    C3 9618   3.879   9.009   1.699 -0.2060  0.1509  0.4952
  103GLOH   H06 9619   3.930   8.914   1.719 -0.1813 -0.4176 -2.0724
  103GLOH   H07 9620   3.803   8.994   1.623 -0.2998 -1.5319  0.8967
  103GLOH    O3 9621   3.817   9.042   1.823 -0.0804 -0.1251 -0.6616
  103GLOH   H01 9622   3.725   9.008   1.828  0.0660 -0.3373  0.9137
  104GLOH   H03 9623   3.993   1.182   0.134  1.2484  0.6237 -0.0019
  104GLOH    O1 9624   3.935   1.245   0.181  0.3665 -0.3315  0.2119
  104GLOH    C1 9625   4.010   1.298   0.297  0.2674 -0.4352 -0.5817
  104GLOH   H02 9626   4.088   1.367   0.264 -1.3861  1.1655 -1.2357
  104GLOH   H08 9627   4.050   1.220   0.361  0.9662  0.5511  0.2062
  104GLOH    C2 9628   3.918   1.381   0.385 -0.1990  0.3663 -0.1314
  104GLOH   H04 9629   3.833   1.315   0.408  2.0699 -2.6276  0.0236
  104GLOH    O2 9630   3.994   1.421   0.505 -0.0628 -0.2549  0.8667
  104GLOH   H05 9631   3.972   1.372   0.586  3.6621 -2.2640  0.7599
  104GLOH    C3 9632   3.867   1.508   0.306 -0.2922 -0.2768  0.1052
  104GLOH   H06 9633   3.956   1.553   0.262 -0.2687 -0.1304  0.3042
  104GLOH   H07 9634   3.819   1.584   0.368  0.2865  3.0533 -3.3493
  104GLOH    O3 9635   3.778   1.467   0.201 -0.2313 -0.2490 -0.3571
  104GLOH   H01 9636   3.827   1.397   0.153 -1.3326 -1.1242 -0.2210
  105GLOH   H03 9637   2.567   9.640   0.257 -1.3192 -0.0904  0.5642
  105GLOH    O1 9638   2.589   9.557   0.303  0.5532  0.0783  0.0215
  105GLOH    C1 9639   2.717   9.504   0.265  0.0112  0.4070 -0.2785
  105GLOH   H02 9640   2.795   9.575   0.293 -1.1788  2.2532 -1.5571
  105GLOH   H08 9641   2.726   9.486   0.158 -1.7352  0.6198 -0.4737
  105GLOH    C2 9642   2.749   9.365   0.324  0.4520  0.3071  0.3236
  105GLOH   H04 9643   2.667   9.303   0.285  0.7102 -0.8560  1.5928
  105GLOH    O2 9644   2.875   9.319   0.271  0.3115  0.0724 -0.1229
  105GLOH   H05 9645   2.891   9.229   0.305  2.2057  1.2348  2.1068
  105GLOH    C3 9646   2.739   9.366   0.475  0.1291 -0.1911 -0.7616
  105GLOH   H06 9647   2.820   9.428   0.513  0.2878  0.3462 -1.9649
  105GLOH   H07 9648   2.758   9.262   0.501 -0.5732 -0.4950 -1.4447
  105GLOH    O3 9649   2.602   9.408   0.506  0.4642  0.2749  0.1668
  105GLOH   H01 9650   2.580   9.479   0.444 -1.1632 -0.9123 -0.6478
  106GLOH   H03 9651   4.188   0.326   0.732 -1.0897  1.3934 -0.6384
  106GLOH    O1 9652   4.113   0.275   0.767 -0.5774  0.9298 -0.2218
  106GLOH    C1 9653   4.020   0.242   0.663  0.1218 -0.3273 -0.0995
  106GLOH   H02 9654   4.030   0.307   0.576  1.4461 -0.8689 -0.3647
  106GLOH   H08 9655   3.914   0.248   0.689 -0.4656  0.8121 -2.5985
  106GLOH    C2 9656   4.034   0.100   0.606 -0.0411 -0.6478 -0.8986
  106GLOH   H04 9657   3.960   0.080   0.526 -1.2835 -2.1656  0.5851
  106GLOH    O2 9658   4.168   0.092   0.557  0.0240  0.7895  0.4185
  106GLOH   H05 9659   4.189   0.175   0.512  0.8318 -0.2410 -1.1577
  106GLOH    C3 9660   4.012   0.006   0.728  0.0429  0.1285  0.3639
  106GLOH   H06 9661   3.922   0.046   0.775 -0.9214 -0.1770 -1.2039
  106GLOH   H07 9662   4.091   0.025   0.801 -0.7688 -0.9181  1.5219
  106GLOH    O3 9663   4.015  -0.137   0.719 -0.1320 -0.1394 -0.0295
  106GLOH   H01 9664   4.092  -0.162   0.665 -0.2482  2.0957 -1.2548
  107GLOH   H03 9665   3.480   8.650   2.377 -0.3245  0.7877 -1.8810
  107GLOH    O1 9666   3.547   8.589   2.341  0.0572 -0.1071  0.2682
  107GLOH    C1 9667   3.671   8.667   2.336  0.6358  0.6330  0.1334
  107GLOH   H02 9668   3.754   8.600   2.356 -0.0922 -0.2525  0.2471
  107GLOH   H08 9669   3.672   8.741   2.416 -2.8644 -0.2759  1.1176
  107GLOH    C2 9670   3.696   8.734   2.197  0.4279 -0.4432  0.2462
  107GLOH   H04 9671   3.781   8.803   2.183  0.0951 -0.3167 -1.3035
  107GLOH    O2 9672   3.717   8.629   2.099  0.4471 -0.4632  0.2076
  107GLOH   H05 9673   3.658   8.559   2.129 -2.0326  1.9477  1.1202
  107GLOH    C3 9674   3.572   8.812   2.149 -0.0810 -0.1196  0.0104
  107GLOH   H06 9675   3.498   8.736   2.125 -1.1131  0.5753  0.9099
  107GLOH   H07 9676   3.604   8.862   2.057 -2.4320  0.2382 -0.6612
  107GLOH    O3 9677   3.520   8.899   2.250  0.2695 -0.1879  0.2127
  107GLOH   H01 9678   3.590   8.962   2.275  0.1987 -0.2288  0.5179
  108GLOH   H03 9679   3.509   8.833   2.590 -0.9851  0.6145  2.3800
  108GLOH    O1 9680   3.569   8.773   2.638  0.7009  0.5519  0.3077
  108GLOH    C1 9681   3.670   8.848   2.702 -0.1846  0.4919  0.6495
  108GLOH   H02 9682   3.734   8.881   2.620  1.8826 -1.7127  1.3168
  108GLOH   H08 9683   3.729   8.784   2.767 -0.2052 -4.2189 -3.6275
  108GLOH    C2 9684   3.610   8.975   2.754 -0.5130  0.1560 -0.0969
  108GLOH   H04 9685   3.527   8.941   2.818 -2.2200  0.5891 -2.0040
  108GLOH    O2 9686   3.702   9.049   2.838 -0.0265  0.0495  0.0739
  108GLOH   H05 9687   3.789   9.011   2.818  1.4206  2.6400  1.1030
  108GLOH    C3 9688   3.569   9.057   2.629  0.7176  0.6899 -0.0871
  108GLOH   H06 9689   3.661   9.081   2.577 -0.0646  1.9666 -0.9039
  108GLOH   H07 9690   3.533   9.156   2.657  0.8953  1.0169 -1.0036
  108GLOH    O3 9691   3.481   8.989   2.537 -0.1281 -0.0574 -0.3280
  108GLOH   H01 9692   3.448   9.054   2.471 -0.0915 -1.8059 -2.1049
  109GLOH   H03 9693   4.654   0.449   0.852  1.9833 -2.7019  0.7314
  109GLOH    O1 9694   4.572   0.396   0.846  0.0431  0.3121 -0.1117
  109GLOH    C1 9695   4.596   0.286   0.930  0.2119  0.8657 -0.0530
  109GLOH   H02 9696   4.612   0.197   0.868 -0.5406 -0.8837  2.1865
  109GLOH   H08 9697   4.523   0.250   1.002  0.0447  0.4675 -0.4165
  109GLOH    C2 9698   4.731   0.293   1.007 -0.2375  0.8721  0.2673
  109GLOH   H04 9699   4.719   0.367   1.087  0.7879 -0.0454  1.2812
  109GLOH    O2 9700   4.756   0.174   1.073 -0.6047 -0.1925 -0.1973
  109GLOH   H05 9701   4.802   0.110   1.016  0.2790  1.4710 -1.3632
  109GLOH    C3 9702   4.852   0.330   0.914 -0.2854  0.2603 -0.1888
  109GLOH   H06 9703   4.849   0.255   0.835 -2.5873 -0.9447  1.0275
  109GLOH   H07 9704   4.942   0.318   0.974 -0.1575  0.3586 -0.3581
  109GLOH    O3 9705   4.833   0.456   0.851  0.0190  0.4827 -0.3395
  109GLOH   H01 9706   4.914   0.470   0.799  0.8193  1.1673  1.0784
  110GLOH   H03 9707   3.097   0.331   1.578 -2.7722 -0.5750  2.1524
  110GLOH    O1 9708   3.138   0.247   1.604 -0.4406 -0.2229 -0.2017
  110GLOH    C1 9709   3.182   0.188   1.481  0.3929 -0.2167  0.0948
  110GLOH   H02 9710   3.110   0.210   1.402  1.0677 -1.7048 -0.9629
  110GLOH   H08 9711   3.175   0.080   1.494  1.1898 -0.3464 -0.5191
  110GLOH    C2 9712   3.327   0.224   1.446 -0.2397  0.8615 -0.7562
  110GLOH   H04 9713   3.392   0.230   1.535 -0.7726 -1.7423 -0.1650
  110GLOH    O2 9714   3.391   0.133   1.353  0.4470 -0.1711 -0.0280
  110GLOH   H05 9715   3.344   0.145   1.269 -0.0048 -0.0479  0.2441
  110GLOH    C3 9716   3.329   0.359   1.385  0.1738 -0.0706  0.4919
  110GLOH   H06 9717   3.272   0.373   1.293 -1.1210  0.3653  1.3408
  110GLOH   H07 9718   3.432   0.381   1.361 -0.1945  1.2731  0.1258
  110GLOH    O3 9719   3.291   0.463   1.477 -0.5251  0.1374 -0.2729
  110GLOH   H01 9720   3.366   0.477   1.539  0.1860 -2.9534 -0.3116
  111GLOH   H03 9721   3.536   1.340   2.645  0.0917 -0.1476  0.6458
  111GLOH    O1 9722   3.478   1.417   2.627  0.1378 -0.1968  0.2804
  111GLOH    C1 9723   3.398   1.375   2.519 -0.3596  1.0052  1.3181
  111GLOH   H02 9724   3.307   1.433   2.509 -0.9658 -0.2399 -0.8892
  111GLOH   H08 9725   3.363   1.277   2.551  1.6878 -0.0939  0.3198
  111GLOH    C2 9726   3.469   1.382   2.379 -0.2139 -0.1313 -0.6917
  111GLOH   H04 9727   3.545   1.303   2.384  3.0295  2.7772 -1.7772
  111GLOH    O2 9728   3.378   1.362   2.272  0.3377 -0.0834  0.3877
  111GLOH   H05 9729   3.360   1.448   2.230 -3.5303 -0.4276  1.1219
  111GLOH    C3 9730   3.545   1.511   2.357 -0.8164 -0.0854 -0.7036
  111GLOH   H06 9731   3.605   1.517   2.267 -0.6064 -0.7636 -0.6094
  111GLOH   H07 9732   3.616   1.529   2.438 -0.9714 -3.0643  0.1422
  111GLOH    O3 9733   3.449   1.625   2.356 -0.5648 -0.4678  0.0905
  111GLOH   H01 9734   3.450   1.671   2.443 -2.5117  1.0989 -0.6633
  112GLOH   H03 9735   2.823   9.047   0.143  0.8688  0.3582 -0.4509
  112GLOH    O1 9736   2.800   9.072   0.052  0.7493  0.1504 -0.4784
  112GLOH    C1 9737   2.916   9.062  -0.031 -0.1077  0.8854  0.3792
  112GLOH   H02 9738   2.991   9.133   0.006  1.5220  0.2073 -1.5341
  112GLOH   H08 9739   2.891   9.083  -0.135  2.0166 -2.5952 -0.9000
  112GLOH    C2 9740   2.973   8.915  -0.053  0.4317  0.3475 -0.2921
  112GLOH   H04 9741   3.038   8.910  -0.142 -1.4279  1.6093 -1.7671
  112GLOH    O2 9742   3.053   8.879   0.058 -0.0284 -0.3383  0.4854
  112GLOH   H05 9743   3.134   8.929   0.038  0.2972 -0.5109  1.3428
  112GLOH    C3 9744   2.867   8.803  -0.087 -0.3384  0.0014 -0.3277
  112GLOH   H06 9745   2.775   8.822  -0.031  0.0252  1.8077 -0.3196
  112GLOH   H07 9746   2.903   8.707  -0.052 -0.5258  0.3518  0.8704
  112GLOH    O3 9747   2.826   8.795  -0.225 -0.1275 -0.4747 -0.5307
  112GLOH   H01 9748   2.899   8.751  -0.273 -0.6635 -0.7994 -1.0643
  113GLOH   H03 9749   2.765   8.925   1.031  0.0586  1.5210 -0.3077
  113GLOH    O1 9750   2.744   8.919   0.936 -0.1259 -0.0742 -0.1787
  113GLOH    C1 9751   2.773   8.777   0.913 -0.8773  0.2672 -0.7571
  113GLOH   H02 9752   2.736   8.750   0.814 -2.8904  0.6209 -0.1171
  113GLOH   H08 9753   2.711   8.720   0.982  2.6577  0.5008  2.7981
  113GLOH    C2 9754   2.923   8.747   0.930 -0.7102 -0.4163 -0.3844
  113GLOH   H04 9755   2.950   8.766   1.035 -1.5168  0.3293 -0.3034
  113GLOH    O2 9756   2.956   8.609   0.903  0.1686  0.5787 -0.3117
  113GLOH   H05 9757   2.921   8.562   0.981 -0.3077 -0.3009 -1.0620
  113GLOH    C3 9758   3.018   8.838   0.850  0.3319  0.0254 -0.6186
  113GLOH   H06 9759   2.977   8.828   0.749 -2.8776  1.3891  0.4726
  113GLOH   H07 9760   3.116   8.794   0.869 -0.0543 -0.3314  0.5757
  113GLOH    O3 9761   3.009   8.973   0.890 -0.7917  0.4673 -0.1197
  113GLOH   H01 9762   2.914   8.995   0.898 -1.1201 -0.8902 -0.1200
  114GLOH   H03 9763   2.765   0.481   2.540  0.8578  1.7312  0.7350
  114GLOH    O1 9764   2.727   0.431   2.615  0.4956  0.3583 -0.3550
  114GLOH    C1 9765   2.594   0.390   2.588  0.1708  0.3352  0.3228
  114GLOH   H02 9766   2.584   0.336   2.494 -0.4980  0.1175  0.5195
  114GLOH   H08 9767   2.523   0.473   2.585 -1.8043 -1.3304  0.2162
  114GLOH    C2 9768   2.536   0.291   2.696 -0.0201  0.1061 -0.0135
  114GLOH   H04 9769   2.430   0.281   2.666  0.0643  0.5869 -0.4839
  114GLOH    O2 9770   2.599   0.164   2.683 -0.1613  0.3037  0.2933
  114GLOH   H05 9771   2.687   0.165   2.723 -0.3885  0.7743  0.7929
  114GLOH    C3 9772   2.550   0.360   2.836 -0.0709 -0.1806  0.0294
  114GLOH   H06 9773   2.514   0.462   2.825 -1.3999 -0.8323 -1.8605
  114GLOH   H07 9774   2.653   0.369   2.871 -0.2246 -0.3017  0.5179
  114GLOH    O3 9775   2.472   0.300   2.939 -0.5439  0.8459  0.4186
  114GLOH   H01 9776   2.483   0.362   3.014  1.7457  2.2605 -1.0417
  115GLOH   H03 9777   3.623   9.815   0.726  2.5851  3.5653 -1.9124
  115GLOH    O1 9778   3.661   9.835   0.813  0.2762 -0.1387  0.0540
  115GLOH    C1 9779   3.605   9.962   0.855  0.6416  0.2446 -0.6044
  115GLOH   H02 9780   3.631  10.045   0.790 -0.4058  0.2959 -0.9764
  115GLOH   H08 9781   3.635   9.988   0.956 -1.6672  0.4409  0.0776
  115GLOH    C2 9782   3.448   9.963   0.857  0.4884  0.3873 -0.0519
  115GLOH   H04 9783   3.422   9.861   0.890  2.9559  0.4774  2.4171
  115GLOH    O2 9784   3.384  10.065   0.937 -0.5993 -0.2402 -0.1042
  115GLOH   H05 9785   3.369  10.145   0.884  0.7630  0.0302 -0.0909
  115GLOH    C3 9786   3.372   9.986   0.721  0.2218 -0.3252 -0.3690
  115GLOH   H06 9787   3.370  10.093   0.699  0.4306 -0.4501 -1.0056
  115GLOH   H07 9788   3.269   9.957   0.745  0.2654  1.1832  1.8110
  115GLOH    O3 9789   3.435   9.918   0.612  0.3569 -0.9895  0.0420
  115GLOH   H01 9790   3.369   9.916   0.540 -0.2778 -3.5342  0.6285
  116GLOH   H03 9791   2.498   0.609   0.708 -0.3533  1.8990  0.4392
  116GLOH    O1 9792   2.518   0.625   0.614  0.2534  0.1439  0.2357
  116GLOH    C1 9793   2.661   0.644   0.608 -0.4042  0.0612  0.4703
  116GLOH   H02 9794   2.718   0.564   0.655  0.3374  0.0383 -0.4618
  116GLOH   H08 9795   2.686   0.740   0.654  1.7864 -0.5725  0.6516
  116GLOH    C2 9796   2.693   0.643   0.457 -0.1168 -0.7045 -0.1076
  116GLOH   H04 9797   2.636   0.722   0.407  1.6180 -0.5580 -1.9443
  116GLOH    O2 9798   2.835   0.666   0.450 -0.1498  0.4565 -0.1150
  116GLOH   H05 9799   2.858   0.691   0.359  1.5288 -2.5426 -0.5755
  116GLOH    C3 9800   2.651   0.516   0.388  0.4915 -0.1515 -0.2886
  116GLOH   H06 9801   2.712   0.428   0.411 -0.9851 -0.7449  1.4224
  116GLOH   H07 9802   2.661   0.541   0.282 -2.2795  0.7440 -0.3788
  116GLOH    O3 9803   2.517   0.474   0.406 -0.0629  0.4326  0.4453
  116GLOH   H01 9804   2.479   0.534   0.472 -1.9300 -0.9906  0.7117
  117GLOH   H03 9805   3.672  10.101   1.786 -0.2899  1.6706  0.3375
  117GLOH    O1 9806   3.616  10.069   1.859 -0.3471  0.4880 -0.2180
  117GLOH    C1 9807   3.550  10.169   1.940 -0.7559 -0.1122  0.3601
  117GLOH   H02 9808   3.566  10.268   1.896  0.9469 -1.0482 -1.2177
  117GLOH   H08 9809   3.593  10.175   2.040 -0.6774 -3.0415  0.5440
  117GLOH    C2 9810   3.400  10.144   1.949  0.7756  0.6175 -0.3900
  117GLOH   H04 9811   3.385  10.042   1.988  0.8154  0.4277 -0.8674
  117GLOH    O2 9812   3.341  10.229   2.048 -0.4160  0.3918  0.0955
  117GLOH   H05 9813   3.281  10.172   2.098 -0.0604 -0.5572 -0.5469
  117GLOH    C3 9814   3.331  10.153   1.815  0.4908 -0.0950 -0.0524
  117GLOH   H06 9815   3.384  10.094   1.741  1.0436  0.7584 -0.3469
  117GLOH   H07 9816   3.343  10.256   1.782  0.5680 -0.4807 -1.2339
  117GLOH    O3 9817   3.190  10.120   1.820 -0.0465  0.7415  0.0810
  117GLOH   H01 9818   3.143  10.157   1.744 -0.2650  2.2666  0.9480
  118GLOH   H03 9819   4.309   0.488  -0.033  1.1848 -3.8292 -1.1430
  118GLOH    O1 9820   4.293   0.446   0.053 -0.3130 -0.1324  0.4703
  118GLOH    C1 9821   4.156   0.491   0.090  0.0867 -0.2003  0.0499
  118GLOH   H02 9822   4.087   0.468   0.010 -0.5317  0.0632  0.5054
  118GLOH   H08 9823   4.161   0.599   0.103 -0.8992 -0.4444  2.8973
  118GLOH    C2 9824   4.112   0.425   0.220  0.2709  0.5452 -0.0843
  118GLOH   H04 9825   4.167   0.475   0.301  0.2209  1.7820 -0.8042
  118GLOH    O2 9826   3.972   0.460   0.239 -0.5804  0.1028 -0.0891
  118GLOH   H05 9827   3.960   0.465   0.335 -1.9002  0.6699 -0.2810
  118GLOH    C3 9828   4.127   0.269   0.214 -0.5655 -0.3594 -0.2074
  118GLOH   H06 9829   4.065   0.230   0.133 -0.6132 -2.7357  0.9218
  118GLOH   H07 9830   4.081   0.225   0.303 -1.6459 -1.9806 -1.5268
  118GLOH    O3 9831   4.260   0.235   0.195  0.1087  0.2889 -0.3994
  118GLOH   H01 9832   4.304   0.311   0.152  0.6166  0.4690  0.4285
  119GLOH   H03 9833   3.810   1.639   0.696 -1.2951  0.6751 -0.6912
  119GLOH    O1 9834   3.736   1.620   0.758 -0.5535  0.8762  0.2632
  119GLOH    C1 9835   3.787   1.570   0.881  0.9262  1.1118  0.0548
  119GLOH   H02 9836   3.790   1.461   0.880  2.0986  1.1419  0.3914
  119GLOH   H08 9837   3.723   1.603   0.963 -0.5597  0.1546 -0.6945
  119GLOH    C2 9838   3.924   1.627   0.917  0.0660 -0.2198  0.4484
  119GLOH   H04 9839   3.926   1.737   0.919  0.4963 -0.2364  0.7755
  119GLOH    O2 9840   3.967   1.585   1.046 -0.0584 -0.1050 -0.4464
  119GLOH   H05 9841   3.970   1.488   1.052 -0.4413 -0.1106 -0.3289
  119GLOH    C3 9842   4.025   1.578   0.814  0.3442  0.4335 -0.6671
  119GLOH   H06 9843   4.034   1.472   0.836 -0.1797  0.4080 -0.5648
  119GLOH   H07 9844   4.121   1.625   0.835  0.9662 -1.6834  1.3837
  119GLOH    O3 9845   3.991   1.624   0.679 -0.5952 -0.1013 -0.4553
  119GLOH   H01 9846   4.069   1.617   0.621  0.0765  1.7685  0.1527
  120GLOH   H03 9847   4.910   0.822   0.546  0.1514  0.9387 -1.4656
  120GLOH    O1 9848   4.878   0.878   0.619  0.0209 -0.4102 -0.4805
  120GLOH    C1 9849   4.740   0.905   0.588  0.3290 -0.1590 -0.3498
  120GLOH   H02 9850   4.734   0.999   0.532  1.8080  1.8327  2.6952
  120GLOH   H08 9851   4.673   0.910   0.674 -1.2063  0.2003 -1.5262
  120GLOH    C2 9852   4.661   0.795   0.513 -0.5252 -0.2767 -0.1376
  120GLOH   H04 9853   4.668   0.699   0.567 -0.3581  0.2110  0.7186
  120GLOH    O2 9854   4.525   0.824   0.500  0.5826  0.0215 -0.1912
  120GLOH   H05 9855   4.477   0.820   0.585 -0.6283  1.1761 -0.7904
  120GLOH    C3 9856   4.727   0.772   0.377 -0.7377 -0.4989  0.1946
  120GLOH   H06 9857   4.720   0.864   0.319 -1.1642 -0.5989  0.0871
  120GLOH   H07 9858   4.686   0.695   0.311 -1.0128 -0.7989  0.7207
  120GLOH    O3 9859   4.865   0.734   0.394 -0.3078 -0.1195 -0.9860
  120GLOH   H01 9860   4.883   0.641   0.368  1.2920  0.0858 -0.6872
  121ACOH    H4 9861   3.668   1.574   2.065 -1.1115  0.0694  2.1743
  121ACOH    O2 9862   3.624   1.659   2.051  1.0100  0.8541  0.0490
  121ACOH    C2 9863   3.491   1.632   2.061 -0.1960 -0.8381  0.3486
  121ACOH    O1 9864   3.440   1.530   2.023  0.0319  0.4523 -0.6143
  121ACOH    C1 9865   3.406   1.750   2.079  0.3060  0.1888 -0.3657
  121ACOH    H1 9866   3.433   1.824   2.004  0.1765  2.6097  1.9090
  121ACOH    H2 9867   3.421   1.792   2.179 -1.0349 -1.3987  0.5261
  121ACOH    H3 9868   3.299   1.730   2.070  0.3439  0.1756 -0.7804
  122ACOH    H4 9869   4.920   0.834   0.772  0.0907 -0.0482  0.3967
  122ACOH    O2 9870   4.914   0.769   0.843 -0.0803 -0.1257  0.3102
  122ACOH    C2 9871   5.033   0.733   0.885 -0.0956  0.1176 -0.5732
  122ACOH    O1 9872   5.136   0.758   0.826 -0.4597 -0.0049 -0.2389
  122ACOH    C1 9873   5.031   0.664   1.014  0.1154  0.2456 -0.2300
  122ACOH    H1 9874   5.116   0.684   1.079  1.2071 -1.0615 -1.2482
  122ACOH    H2 9875   5.035   0.558   0.992 -0.4892  0.4062 -1.1272
  122ACOH    H3 9876   4.940   0.693   1.068 -0.4781 -1.6777 -0.1605
  123ACOH    H4 9877   2.943   8.447   2.161 -0.3493  0.1357 -0.3506
  123ACOH    O2 9878   2.900   8.454   2.247  0.3453 -0.5314  0.0643
  123ACOH    C2 9879   2.769   8.463   2.224  0.1552  0.3387  0.4103
  123ACOH    O1 9880   2.713   8.480   2.116 -0.1251 -0.2983 -0.5154
  123ACOH    C1 9881   2.684   8.467   2.342  0.0458 -0.2662 -0.9564
  123ACOH    H1 9882   2.600   8.400   2.326  0.4210 -1.1045  0.4930
  123ACOH    H2 9883   2.647   8.568   2.364 -0.7291 -0.3726 -1.7527
  123ACOH    H3 9884   2.745   8.426   2.422 -1.8599  1.6783  1.6069
  124ACOH    H4 9885   3.139   8.357   0.725  2.5096 -0.3971  0.0159
  124ACOH    O2 9886   3.121   8.306   0.645  0.0460  0.0120  0.2599
  124ACOH    C2 9887   2.989   8.303   0.632  0.4779  0.2017 -1.1094
  124ACOH    O1 9888   2.899   8.308   0.713 -0.6720  0.0701  0.2793
  124ACOH    C1 9889   2.951   8.269   0.496 -0.2384  0.2150 -0.0428
  124ACOH    H1 9890   2.955   8.359   0.436 -0.3417 -0.3046 -0.8417
  124ACOH    H2 9891   2.855   8.220   0.478 -0.2394  0.0448  0.4324
  124ACOH    H3 9892   3.023   8.195   0.460  0.9978  0.9598  0.8490
  125ACOH    H4 9893   3.612   8.424   0.871  0.0344 -1.3480 -1.1222
  125ACOH    O2 9894   3.681   8.355   0.870  0.8084 -0.6018 -0.2911
  125ACOH    C2 9895   3.654   8.269   0.966 -0.2904  0.9808  0.4681
  125ACOH    O1 9896   3.567   8.270   1.050 -0.2618  0.0380 -0.0986
  125ACOH    C1 9897   3.756   8.161   0.961  0.7452 -0.3685 -0.6972
  125ACOH    H1 9898   3.851   8.210   0.985  0.0598  0.6649 -0.0403
  125ACOH    H2 9899   3.762   8.108   0.866  1.5261 -1.1656 -0.2087
  125ACOH    H3 9900   3.734   8.095   1.044 -1.3612  1.8684  0.5732
  126ACOH    H4 9901   5.295   0.746   0.767  0.9179 -3.2495  2.8333
  126ACOH    O2 9902   5.385   0.725   0.735  0.5696 -0.3033 -0.5095
  126ACOH    C2 9903   5.392   0.595   0.706  0.9881  0.1116  0.0549
  126ACOH    O1 9904   5.308   0.514   0.732  0.4342 -0.7921 -0.1306
  126ACOH    C1 9905   5.506   0.560   0.620 -0.1038 -0.3005  0.3594
  126ACOH    H1 9906   5.494   0.618   0.528 -0.1469 -2.2467 -0.8872
  126ACOH    H2 9907   5.504   0.453   0.598 -0.7622 -0.2467  0.1510
  126ACOH    H3 9908   5.593   0.594   0.677 -0.4255 -3.3229  2.7550
  127ACOH    H4 9909   3.180   0.523   1.379  0.4163 -1.3898 -2.6256
  127ACOH    O2 9910   3.099   0.568   1.350 -0.1918 -0.4623  0.3765
  127ACOH    C2 9911   3.010   0.581   1.448  0.4767  0.1497 -0.0903
  127ACOH    O1 9912   3.001   0.505   1.546 -0.0285 -0.2546  0.5537
  127ACOH    C1 9913   2.893   0.667   1.424  0.1074 -0.3242  0.4397
  127ACOH    H1 9914   2.907   0.714   1.326  1.5169  1.2438  1.3616
  127ACOH    H2 9915   2.895   0.749   1.495  1.1707 -1.9702  2.3644
  127ACOH    H3 9916   2.797   0.617   1.438 -1.7986  2.8020 -0.9364
  128ACOH    H4 9917   3.318   8.931   0.569 -0.7729  0.4052 -0.9075
  128ACOH    O2 9918   3.278   8.845   0.593  0.2149 -0.0126 -0.7279
  128ACOH    C2 9919   3.166   8.828   0.530  0.2107  0.8565  0.0244
  128ACOH    O1 9920   3.094   8.909   0.477 -0.3332  0.1944 -0.0127
  128ACOH    C1 9921   3.115   8.688   0.545  0.8635 -0.5152  0.6235
  128ACOH    H1 9922   3.011   8.679   0.514  0.4091  0.3034  1.9046
  128ACOH    H2 9923   3.122   8.637   0.640  1.2700 -4.0911 -1.2384
  128ACOH    H3 9924   3.178   8.629   0.478  2.2350  2.1945 -0.5841
  129ACOH    H4 9925   4.139   1.514   0.482  0.1070 -0.7192  2.6215
  129ACOH    O2 9926   4.203   1.586   0.495 -0.4874  0.1545  0.8902
  129ACOH    C2 9927   4.318   1.518   0.510 -0.6222  0.4292  0.1943
  129ACOH    O1 9928   4.331   1.401   0.535 -0.4312  0.5224 -0.4113
  129ACOH    C1 9929   4.435   1.610   0.520  0.0768  0.1938  0.0348
  129ACOH    H1 9930   4.526   1.552   0.502 -1.2354 -1.0088 -3.1558
  129ACOH    H2 9931   4.436   1.665   0.614 -0.0415  1.3946 -0.6614
  129ACOH    H3 9932   4.428   1.686   0.443 -2.0227 -0.2333 -0.2317
  130ACOH    H4 9933   2.792   0.668   0.899  2.4092 -0.5935 -2.5841
  130ACOH    O2 9934   2.801   0.761   0.871 -0.4149  0.7131  0.5472
  130ACOH    C2 9935   2.767   0.822   0.988  0.4239  0.5879  0.3564
  130ACOH    O1 9936   2.701   0.778   1.081  0.3306  0.5001  0.1795
  130ACOH    C1 9937   2.809   0.963   0.980  0.1730 -0.3315 -0.4630
  130ACOH    H1 9938   2.886   0.978   0.903  0.6593 -0.6023 -0.0261
  130ACOH    H2 9939   2.849   0.991   1.077  0.1141 -2.4474  0.1759
  130ACOH    H3 9940   2.726   1.030   0.958  1.1028  0.9325 -0.1960
  131ACOH    H4 9941   2.562   9.101   1.688  1.5145 -0.2512  0.0510
  131ACOH    O2 9942   2.527   9.018   1.725 -0.4511  0.6525  0.3193
  131ACOH    C2 9943   2.538   9.031   1.853  0.3654  0.7913 -0.5801
  131ACOH    O1 9944   2.608   9.115   1.906  0.4110  0.4677  0.8040
  131ACOH    C1 9945   2.475   8.914   1.921  0.0275 -0.1981  0.2338
  131ACOH    H1 9946   2.510   8.911   2.024 -1.7949 -3.5140  0.8534
  131ACOH    H2 9947   2.494   8.816   1.877 -1.1759  0.3627 -1.5980
  131ACOH    H3 9948   2.370   8.943   1.928  0.6687  1.7708  2.2491
  132ACOH    H4 9949   4.229   0.386   0.501  0.7664  0.7232  0.7784
  132ACOH    O2 9950   4.280   0.306   0.483  0.0559  0.5791 -0.6996
  132ACOH    C2 9951   4.406   0.342   0.450  0.2923 -0.8597  0.6168
  132ACOH    O1 9952   4.448   0.449   0.412 -0.3884  0.3783  0.1362
  132ACOH    C1 9953   4.483   0.223   0.420  0.3582 -0.3249  0.2986
  132ACOH    H1 9954   4.415   0.154   0.370  0.5960 -0.4462  0.1432
  132ACOH    H2 9955   4.526   0.182   0.511 -0.7340  0.6326  1.2643
  132ACOH    H3 9956   4.563   0.247   0.350 -0.5499 -0.7152 -0.8960
  133ACOH    H4 9957   3.230   0.256   2.553 -2.6291  3.3808 -1.3087
  133ACOH    O2 9958   3.297   0.288   2.491 -0.2355 -0.0591 -0.6562
  133ACOH    C2 9959   3.367   0.180   2.458 -0.7761 -0.8053 -0.2533
  133ACOH    O1 9960   3.370   0.071   2.517  0.7667 -0.4725  0.3542
  133ACOH    C1 9961   3.475   0.221   2.359 -0.0005  0.0263  0.0652
  133ACOH    H1 9962   3.451   0.324   2.331 -1.4681  0.0473  1.3210
  133ACOH    H2 9963   3.475   0.152   2.275  0.1104 -0.0848  0.1573
  133ACOH    H3 9964   3.575   0.224   2.401  0.2033  1.5780 -0.4919
  134ACOH    H4 9965   4.536   9.597   0.756 -0.5333 -0.3840  1.9733
  134ACOH    O2 9966   4.617   9.543   0.754 -0.3825 -0.1478 -0.2060
  134ACOH    C2 9967   4.638   9.524   0.628  0.1071 -0.0976 -0.3144
  134ACOH    O1 9968   4.602   9.601   0.540 -1.0429  0.1421 -0.1897
  134ACOH    C1 9969   4.745   9.426   0.596  0.2068 -0.6585  0.2091
  134ACOH    H1 9970   4.829   9.487   0.562 -0.7788 -0.0700 -1.2301
  134ACOH    H2 9971   4.704   9.366   0.515  0.5505 -0.9246  0.2301
  134ACOH    H3 9972   4.772   9.372   0.686  3.6780  0.5692 -0.0063
  135SOL     OW 9973   3.195   0.892   0.624  0.4894  0.1170 -0.4161
  135SOL    HW1 9974   3.127   0.823   0.650  2.3668 -0.9671  1.7833
  135SOL    HW2 9975   3.155   0.983   0.632 -0.7104 -0.5075  0.8602
  136SOL     OW 9976   3.841   1.018   2.163  0.2985  0.3746 -0.0246
  136SOL    HW1 9977   3.779   1.080   2.115  1.7282  1.6806 -0.2123
  136SOL    HW2 9978   3.803   0.926   2.163 -0.2018  0.5476 -2.8341
  137SOL     OW 9979   2.732   9.352   1.392  0.2099 -0.4398  0.2751
  137SOL    HW1 9980   2.713   9.303   1.307  1.3194 -0.2207 -0.1039
  137SOL    HW2 9981   2.713   9.450   1.380 -4.0151 -0.9867  1.6431
  138SOL     OW 9982   3.596   8.350   1.744  0.0827 -0.3438 -0.0355
  138SOL    HW1 9983   3.533   8.373   1.669  1.2434  3.3619 -0.0031
  138SOL    HW2 9984   3.690   8.361   1.712  0.6169 -0.6516  1.4191
  139SOL     OW 9985   4.003   8.724   2.616 -0.1451 -0.5746  0.3414
  139SOL    HW1 9986   3.956   8.796   2.667 -0.0017  0.2429 -0.6759
  139SOL    HW2 9987   4.085   8.761   2.573  1.2256 -1.9012  1.7606
  140SOL     OW 9988   3.460   1.618   0.748 -0.1302 -0.3668 -0.5792
  140SOL    HW1 9989   3.436   1.679   0.823 -1.1964  0.6835 -1.7417
  140SOL    HW2 9990   3.559   1.600   0.750  0.4067  2.2797 -0.8295
  141SOL     OW 9991   4.286   9.508   1.479 -0.0406 -0.3063  0.4674
  141SOL    HW1 9992   4.348   9.459   1.540 -0.6534 -0.8105  0.6838
  141SOL    HW2 9993   4.228   9.443   1.430 -0.0937  0.1373 -0.0775
  142SOL     OW 9994   3.981   9.942   1.698  0.4472 -0.3383 -0.5384
  142SOL    HW1 9995   4.061   9.966   1.643  1.3470  0.8025  1.2337
  142SOL    HW2 9996   4.000   9.960   1.795 -1.7500 -0.5735 -0.0373
  143SOL     OW 9997   4.104   0.665   2.524  0.0034  0.4948  0.2571
  143SOL    HW1 9998   4.048   0.732   2.573  1.1945  2.5763 -1.1250
  143SOL    HW2 9999   4.053   0.629   2.446  0.4483  2.2436 -0.8893
  144SOL     OW10000   2.728   8.990   2.341  0.0380  0.1225  0.1394
  144SOL    HW110001   2.758   8.948   2.427  0.9747 -0.4303 -0.4454
  144SOL    HW210002   2.743   8.926   2.266 -1.3658  0.3720 -0.3562
  145SOL     OW10003   3.257   9.443   1.752  0.1897  0.5032  0.2182
  145SOL    HW110004   3.282   9.535   1.721 -0.1488  0.6722  0.4509
  145SOL    HW210005   3.203   9.397   1.682 -0.2404  0.7435  0.3882
  146SOL     OW10006   3.957   9.675   1.651  0.0148  0.3146  0.1920
  146SOL    HW110007   3.868   9.656   1.694 -0.5180  1.5318 -0.3600
  146SOL    HW210008   3.980   9.771   1.662  0.2943  0.4563 -1.4658
  147SOL     OW10009   3.442   0.851   0.733 -0.0540  0.2667  0.0465
  147SOL    HW110010   3.509   0.894   0.672  0.2854  1.1299  1.0108
  147SOL    HW210011   3.353   0.849   0.689  0.1944  0.8527 -0.4929
  148SOL     OW10012   3.292   9.671   1.249 -0.1926  0.5012  0.1596
  148SOL    HW110013   3.364   9.602   1.253  1.1054  1.7211 -1.4610
  148SOL    HW210014   3.306   9.739   1.321 -0.2302  0.2368  0.4120
  149SOL     OW10015   3.547   0.633   2.213 -0.0983  0.1766 -0.0696
  149SOL    HW110016   3.579   0.577   2.290 -0.8394 -0.2490 -0.0578
  149SOL    HW210017   3.472   0.585   2.167 -1.9684  1.9702  1.0365
  150SOL     OW10018   2.948   1.212   1.550  0.2764 -0.3286 -0.3075
  150SOL    HW110019   2.945   1.137   1.484 -1.6035 -0.3595 -0.2330
  150SOL    HW210020   2.869   1.272   1.535 -0.7490 -0.8971  2.5576
  151SOL     OW10021   2.779   9.223   1.050 -0.2688  0.3407  0.4796
  151SOL    HW110022   2.740   9.134   1.028 -0.8714  1.2260 -2.2008
  151SOL    HW210023   2.706   9.289   1.066  0.1665  0.5077  1.7991
  152SOL     OW10024   3.399   0.734   2.627 -0.1173 -0.1765 -0.1976
  152SOL    HW110025   3.384   0.825   2.665 -0.6617 -0.2409 -0.2587
  152SOL    HW210026   3.460   0.682   2.687 -0.6345 -0.1345  0.3677
  153SOL     OW10027   4.719   0.298   1.329  0.0646  0.2070  0.1987
  153SOL    HW110028   4.742   0.247   1.246 -0.4772  1.6423 -0.8472
  153SOL    HW210029   4.772   0.261   1.406  0.8673 -0.8755 -0.8445
  154SOL     OW10030   4.548   9.109   2.014 -0.2504 -0.2549 -0.1209
  154SOL    HW110031   4.449   9.099   2.024 -0.2484 -2.4194 -1.9614
  154SOL    HW210032   4.592   9.021   2.029  1.5028  0.8712  1.5247
  155SOL     OW10033   3.302   0.301   0.832  0.7052  0.1915  0.1396
  155SOL    HW110034   3.341   0.391   0.811 -0.2657  0.6326  0.1938
  155SOL    HW210035   3.213   0.293   0.788  1.3414 -1.2423 -0.9045
  156SOL     OW10036   3.661   1.132   1.990 -0.4336  1.0534 -0.5047
  156SOL    HW110037   3.714   1.098   1.912  1.8972 -0.7087  1.7443
  156SOL    HW210038   3.575   1.082   1.995  1.3879 -2.1798  0.6384
  157SOL     OW10039   3.899   0.845   0.673 -0.1459  0.4213  0.1363
  157SOL    HW110040   3.809   0.881   0.649 -0.6710 -0.8511  0.1667
  157SOL    HW210041   3.963   0.859   0.597 -0.3213  1.4629  0.1756
  158SOL     OW10042   3.074   0.639   2.361  0.0687  0.5141 -0.1434
  158SOL    HW110043   3.049   0.616   2.267  1.3132 -1.0712 -0.0994
  158SOL    HW210044   3.167   0.610   2.379 -0.6476 -0.5238  2.0370
  159SOL     OW10045   2.517   9.664   1.218  0.0896 -0.2918  0.0855
  159SOL    HW110046   2.569   9.689   1.300 -0.1475 -0.4856  0.2933
  159SOL    HW210047   2.477   9.573   1.230  1.9173 -1.2848 -1.1353
  160SOL     OW10048   3.714   9.074   2.264 -0.4360 -0.4273 -0.0173
  160SOL    HW110049   3.666   9.154   2.298 -0.4039 -1.1339  1.7861
  160SOL    HW210050   3.786   9.101   2.201 -0.1161  0.9974  0.9508
  161SOL     OW10051   3.587   0.850   2.409  0.4853  0.4624  0.7736
  161SOL    HW110052   3.522   0.865   2.485 -1.1035  1.8066 -0.7946
  161SOL    HW210053   3.553   0.776   2.351  0.0497  1.5057 -0.3339
  162SOL     OW10054   3.894   0.777   1.066  0.0201  0.7079 -0.8035
  162SOL    HW110055   3.821   0.800   1.002 -0.3818  0.1343 -0.5495
  162SOL    HW210056   3.940   0.694   1.035  0.9544  1.3920 -1.2842
  163SOL     OW10057   4.595   0.700   0.876  0.0416  0.2731 -0.2569
  163SOL    HW110058   4.691   0.727   0.870 -0.6021  2.4591 -1.2631
  163SOL    HW210059   4.577   0.658   0.965  1.9577 -0.3049 -0.1310
  164SOL     OW10060   3.404   9.871   1.441  0.1565 -0.3762  0.1443
  164SOL    HW110061   3.500   9.844   1.441  0.0430 -0.7877 -0.1312
  164SOL    HW210062   3.396   9.968   1.422  0.5584 -0.1999  0.8671
  165SOL     OW10063   3.580   9.164   1.266  0.1361 -0.2627  0.2650
  165SOL    HW110064   3.620   9.222   1.337 -0.8771  1.7567 -0.7689
  165SOL    HW210065   3.480   9.169   1.272  0.0461 -1.5115 -0.1474
  166SOL     OW10066   4.029   1.302   1.549 -0.6058  0.6019 -0.1691
  166SOL    HW110067   4.068   1.300   1.642  1.6090  1.9925 -1.0184
  166SOL    HW210068   3.962   1.376   1.544 -1.5253 -0.1642  0.6099
  167SOL     OW10069   4.523   0.604   1.117  0.4811  0.4990  0.0884
  167SOL    HW110070   4.493   0.698   1.133 -0.2753  0.2515  0.1574
  167SOL    HW210071   4.581   0.574   1.193 -0.6430  0.3513  0.9040
  168SOL     OW10072   4.243  10.097   1.801 -0.0763  0.4373  0.8329
  168SOL    HW110073   4.222  10.058   1.712 -2.4297 -2.6011  2.6253
  168SOL    HW210074   4.311  10.040   1.847 -1.5395 -0.0896  2.3900
  169SOL     OW10075   4.267   9.486   1.113 -0.4765 -0.0491  0.4099
  169SOL    HW110076   4.304   9.395   1.130 -2.3868 -1.1557 -1.1280
  169SOL    HW210077   4.191   9.504   1.175 -1.3546 -0.3128 -0.5626
  170SOL     OW10078   2.634   0.543   1.237 -0.1530 -0.0472 -0.0350
  170SOL    HW110079   2.707   0.497   1.187 -0.4215 -0.7206  0.1811
  170SOL    HW210080   2.638   0.641   1.219  0.7864 -0.0804 -0.0478
  171SOL     OW10081   4.331   0.849   1.170 -0.5512 -0.0937  0.2200
  171SOL    HW110082   4.288   0.848   1.079 -0.2888 -1.5671  0.0938
  171SOL    HW210083   4.265   0.817   1.238 -0.7261  0.9464  0.5443
  172SOL     OW10084   3.823   1.024   2.428  0.2004  0.3591  0.6261
  172SOL    HW110085   3.855   1.021   2.333  0.0509  0.8449  0.5615
  172SOL    HW210086   3.728   0.992   2.432 -0.0814  1.1635  0.4881
  173SOL     OW10087   2.950   0.619   2.081  0.7145 -0.2093  0.2344
  173SOL    HW110088   2.864   0.570   2.096  1.2319 -1.1185  0.2701
  173SOL    HW210089   2.991   0.589   1.994  2.0285 -1.3438  1.2113
  174SOL     OW10090   3.898   1.082   0.875 -0.0490  0.2243 -0.1272
  174SOL    HW110091   3.845   1.016   0.929 -0.5299  1.8198  1.4050
  174SOL    HW210092   3.836   1.144   0.827  0.4047  0.2117 -0.7368
  175SOL     OW10093   3.295   0.975   0.343 -0.1406 -0.0085 -0.2355
  175SOL    HW110094   3.225   0.949   0.277 -2.2037  0.5505  1.6668
  175SOL    HW210095   3.271   0.939   0.434  1.9121  0.3862  0.4965
  176SOL     OW10096   3.304   9.857   2.296  0.1968  0.3794 -0.8984
  176SOL    HW110097   3.316   9.944   2.344  0.9879  0.1740 -0.7087
  176SOL    HW210098   3.229   9.806   2.338 -0.7487  1.2759 -1.4724
  177SOL     OW10099   3.968   8.908   2.344 -0.4229 -0.3336  0.7816
  177SOL    HW110100   3.998   8.953   2.428 -0.5556 -0.0754  0.6940
  177SOL    HW210101   3.885   8.953   2.310  0.2366  0.2665 -0.0663
  178SOL     OW10102   3.661   1.244  -0.048  0.3387  0.0365  0.2795
  178SOL    HW110103   3.741   1.265  -0.105 -0.7991 -2.0787 -2.1762
  178SOL    HW210104   3.658   1.146  -0.028 -1.6032  0.0936  0.3827
  179SOL     OW10105   3.478   1.675   2.618  0.4535 -0.4945 -0.0993
  179SOL    HW110106   3.467   1.575   2.619 -0.9605 -0.3685  2.5148
  179SOL    HW210107   3.498   1.707   2.710 -1.4683  1.8660 -0.4525
  180SOL     OW10108   3.942   8.967   0.084 -0.3447 -0.1515 -0.4233
  180SOL    HW110109   4.022   8.996   0.031  0.2352 -2.3209 -0.7849
  180SOL    HW210110   3.953   8.996   0.179  0.3156  0.5780 -0.7121
  181SOL     OW10111   2.522   9.783   0.184  0.5947  0.0347  0.1625
  181SOL    HW110112   2.535   9.830   0.097 -0.9225  1.7669  0.8362
  181SOL    HW210113   2.519   9.850   0.258 -0.3534 -1.2300  1.2930
  182SOL     OW10114   4.029   8.734   2.160 -0.3474  0.5909  0.7704
  182SOL    HW110115   3.941   8.725   2.113  0.0031 -0.1402  0.2383
  182SOL    HW210116   4.020   8.797   2.237 -1.0576  1.4173  0.0218
  183SOL     OW10117   2.732   0.426   2.100  0.7980 -0.0534  0.4693
  183SOL    HW110118   2.671   0.418   2.021 -0.2489  1.5139  1.0805
  183SOL    HW210119   2.765   0.336   2.127 -0.6130 -0.8324 -0.3767
  184SOL     OW10120   2.579   0.384   1.880 -0.6947 -0.2941  0.5209
  184SOL    HW110121   2.492   0.396   1.832 -1.6625 -0.0807  2.2508
  184SOL    HW210122   2.653   0.369   1.814 -2.3087 -2.1540 -0.9242
  185SOL     OW10123   3.858   8.970   1.229  0.0869  0.5932 -0.6736
  185SOL    HW110124   3.765   8.962   1.265  0.5056  2.8192  1.0151
  185SOL    HW210125   3.854   8.988   1.130 -1.1965 -0.8919 -0.9192
  186SOL     OW10126   3.159   0.500   0.528  0.7922  0.0042 -0.1968
  186SOL    HW110127   3.091   0.561   0.568  1.5655  0.5355  0.3052
  186SOL    HW210128   3.211   0.549   0.458  1.7325  0.0571  0.5380
  187SOL     OW10129   2.528   9.199   2.469 -0.4182  0.0710 -0.2826
  187SOL    HW110130   2.462   9.223   2.398 -2.1151  1.1779  1.6048
  187SOL    HW210131   2.531   9.100   2.481 -0.6953 -0.0668 -1.3454
  188SOL     OW10132   2.873   9.258   1.956 -0.0570 -0.6685  0.4227
  188SOL    HW110133   2.781   9.225   1.935 -0.3604 -0.2984  1.1357
  188SOL    HW210134   2.940   9.186   1.937 -0.4569 -0.8128 -0.4414
  189SOL     OW10135   4.076   9.467   1.774 -0.4015  0.2045 -0.3404
  189SOL    HW110136   4.036   9.391   1.723 -0.1337  0.3561 -0.7754
  189SOL    HW210137   4.052   9.553   1.731  1.0079  0.2617 -1.0374
  190SOL     OW10138   3.466   0.996  -0.039  0.4854 -0.9526  0.0189
  190SOL    HW110139   3.375   1.012  -0.077  1.2905  0.4135 -1.3640
  190SOL    HW210140   3.465   1.020   0.059 -0.0676  1.2090 -0.4870
  191SOL     OW10141   3.718   0.594   0.675  0.0498  0.3361  0.3968
  191SOL    HW110142   3.637   0.597   0.733 -0.1220  0.1700  0.1662
  191SOL    HW210143   3.783   0.665   0.704  0.1227  0.0146  1.0253
  192SOL     OW10144   4.219   0.178   0.980 -0.5761 -0.2666 -0.4268
  192SOL    HW110145   4.292   0.242   1.003 -1.8334  1.3981 -0.9854
  192SOL    HW210146   4.171   0.210   0.899 -1.7712 -1.4749 -0.2049
  193SOL     OW10147   3.704   9.311   0.137  0.4082  0.1471 -1.3153
  193SOL    HW110148   3.726   9.214   0.121  0.5343  0.3317 -2.2964
  193SOL    HW210149   3.693   9.357   0.049 -0.8694  0.7553 -0.8502
  194SOL     OW10150   3.023   8.238   0.981  0.4559  0.1733  0.3534
  194SOL    HW110151   2.958   8.244   0.905 -0.5936  0.1938  1.2384
  194SOL    HW210152   3.053   8.329   1.007  0.8007  0.1670 -0.0215
  195SOL     OW10153   2.621   9.244   1.623 -0.0185 -0.4492 -0.1442
  195SOL    HW110154   2.558   9.316   1.652  0.9518  0.3027  0.1131
  195SOL    HW210155   2.666   9.271   1.538 -0.9044 -1.4995 -0.9606
  196SOL     OW10156   2.813   8.600   1.644 -0.0403  0.3826 -0.0036
  196SOL    HW110157   2.907   8.567   1.633 -0.0106  0.0287  1.2100
  196SOL    HW210158   2.796   8.619   1.741 -2.1983 -2.5477  0.2682
  197SOL     OW10159   3.649   9.373   2.215  0.5690 -0.1065 -0.0608
  197SOL    HW110160   3.710   9.453   2.216  1.8803 -1.0843  0.1740
  197SOL    HW210161   3.604   9.367   2.126 -0.0105  1.2333  0.1299
  198SOL     OW10162   3.651   0.537   1.830  1.2143 -0.1695 -0.0817
  198SOL    HW110163   3.576   0.485   1.872  1.3001  0.0251  0.3113
  198SOL    HW210164   3.633   0.635   1.840  1.8188 -0.1189  0.5440
  199SOL     OW10165   3.503  10.071   0.150  0.0180 -0.2298 -0.1078
  199SOL    HW110166   3.496  10.071   0.250  1.9320 -0.3203  0.0356
  199SOL    HW210167   3.421  10.115   0.112 -2.4209 -3.3418  1.3256
  200SOL     OW10168   3.031   1.137   0.628 -0.7698 -0.4751  0.1066
  200SOL    HW110169   2.999   1.231   0.616  0.3235 -0.2960 -1.5346
  200SOL    HW210170   3.001   1.082   0.550  2.6720 -0.3648 -1.3371
  201SOL     OW10171   3.426   0.777   1.519 -0.6162  0.0782 -0.3477
  201SOL    HW110172   3.485   0.820   1.450 -0.5624 -1.7053 -1.4482
  201SOL    HW210173   3.471   0.779   1.608  0.9759 -0.9999 -1.1214
  202SOL     OW10174   3.364   9.504   2.003 -0.0036 -0.4221  0.7447
  202SOL    HW110175   3.463   9.498   2.008 -0.1179 -2.0394  1.7157
  202SOL    HW210176   3.334   9.493   1.908  0.7359 -0.0890  0.4754
  203SOL     OW10177   3.539   0.459   1.566 -0.1969  0.5958 -0.0231
  203SOL    HW110178   3.589   0.500   1.643 -0.9892  1.6322 -0.0463
  203SOL    HW210179   3.578   0.491   1.480 -0.7876  1.2897 -0.0411
  204SOL     OW10180   3.106   1.118   0.915 -0.4479 -0.0631  0.1976
  204SOL    HW110181   3.075   1.109   0.820 -0.1542 -1.0412  0.1903
  204SOL    HW210182   3.176   1.190   0.920 -3.1603  2.6620  0.3355
  205SOL     OW10183   4.150   8.475   2.220 -0.1459 -0.1570 -0.0694
  205SOL    HW110184   4.097   8.550   2.178 -0.9453 -1.6654 -1.8197
  205SOL    HW210185   4.126   8.468   2.317  0.3384  2.1855  0.2640
  206SOL     OW10186   4.280   9.768   1.389  0.0227  0.2635 -0.3545
  206SOL    HW110187   4.281   9.677   1.430  2.5164 -0.3986 -1.8006
  206SOL    HW210188   4.227   9.766   1.304 -0.5866  0.3526  0.0225
  207SOL     OW10189   2.981   0.673   0.674  0.4380  0.2986 -0.2531
  207SOL    HW110190   2.920   0.691   0.751  0.6492 -1.2877  0.2920
  207SOL    HW210191   2.931   0.683   0.588 -0.8537 -2.0157  0.2161
  208SOL     OW10192   4.057   1.259   0.727  0.2963  0.3688 -0.0911
  208SOL    HW110193   4.157   1.256   0.730  0.2883  1.2793  1.4063
  208SOL    HW210194   4.019   1.187   0.785  0.0755 -0.0907 -0.7995
  209SOL     OW10195   4.157   9.040  -0.063 -0.1297 -0.3631 -0.0702
  209SOL    HW110196   4.133   9.109  -0.130  0.1120 -0.3406 -0.1339
  209SOL    HW210197   4.211   8.968  -0.106 -2.6151 -1.9800 -0.6168
  210SOL     OW10198   2.477   0.544   0.864  0.1268 -0.1712  0.6447
  210SOL    HW110199   2.405   0.475   0.868  1.2455 -1.3208  1.2110
  210SOL    HW210200   2.455   0.619   0.926 -1.6848  0.5697 -0.8599
  211SOL     OW10201   2.823  10.099   1.292  0.1017  0.4685  0.3740
  211SOL    HW110202   2.901  10.090   1.231 -1.0203  0.2448 -1.0704
  211SOL    HW210203   2.804  10.011   1.336 -0.3704  0.0875 -0.5828
  212SOL     OW10204   2.548   9.396   1.122 -0.1245  0.6513 -0.3107
  212SOL    HW110205   2.603   9.458   1.066 -1.4267  1.5239 -0.6296
  212SOL    HW210206   2.452   9.405   1.097 -0.5208 -0.1903  0.8958
  213SOL     OW10207   3.415   9.123   1.548 -0.2191 -0.0139 -0.0179
  213SOL    HW110208   3.375   9.074   1.471  0.4908 -1.2999  0.4110
  213SOL    HW210209   3.344   9.145   1.615 -0.7520  0.6609 -0.8121
  214SOL     OW10210   3.570   0.777   1.870  0.1513  0.7504 -0.5884
  214SOL    HW110211   3.470   0.775   1.875  0.2092 -0.4997  0.4834
  214SOL    HW210212   3.605   0.852   1.926 -0.0405 -1.3363  2.4142
  215SOL     OW10213   3.967   1.292   1.086 -0.0819  0.2156  0.0344
  215SOL    HW110214   3.980   1.230   1.008 -0.8248  0.1595 -0.0456
  215SOL    HW210215   3.978   1.241   1.171 -1.0378 -0.1080 -0.0286
  216SOL     OW10216   3.387   8.998   1.987 -0.3364 -0.5819 -0.2302
  216SOL    HW110217   3.334   8.921   2.023  0.8737  0.1195  3.2215
  216SOL    HW210218   3.339   9.084   2.005  1.0157 -0.1017  1.1365
  217SOL     OW10219   4.115   9.364   1.291 -0.1847  0.0642 -0.0157
  217SOL    HW110220   4.075   9.295   1.230  0.3326 -1.4262  1.2847
  217SOL    HW210221   4.043   9.404   1.348 -0.4968  0.6626 -0.8149
  218SOL     OW10222   2.729   9.404   2.428 -0.3207  0.5045  0.3321
  218SOL    HW110223   2.666   9.331   2.453 -0.0217  0.8635  2.2321
  218SOL    HW210224   2.728   9.417   2.329  0.3072 -2.6946 -0.1593
  219SOL     OW10225   3.663   0.876   0.951  0.0753 -0.0455  0.3388
  219SOL    HW110226   3.580   0.846   0.903 -0.4188 -0.5209  1.4754
  219SOL    HW210227   3.637   0.924   1.035  0.9636 -1.8517  1.6723
  220SOL     OW10228   3.612   0.948   1.388 -0.1739  0.5433 -0.2458
  220SOL    HW110229   3.682   0.978   1.324  1.0854 -1.1959  0.2655
  220SOL    HW210230   3.625   0.993   1.477  0.0777  0.4874 -0.2554
  221SOL     OW10231   3.842   0.987   1.234  0.2156  0.1243 -0.5413
  221SOL    HW110232   3.913   1.038   1.282 -0.6395 -1.7633  2.9107
  221SOL    HW210233   3.881   0.905   1.193  0.1703 -0.5103  0.6830
  222SOL     OW10234   2.740   9.431   2.162  1.0248 -0.5509 -0.7558
  222SOL    HW110235   2.774   9.389   2.077  0.1973  0.0222 -1.3704
  222SOL    HW210236   2.695   9.517   2.141 -1.4951 -1.6468 -0.0570
  223SOL     OW10237   4.183   9.958   0.228 -0.1260  0.2374 -0.2704
  223SOL    HW110238   4.214  10.053   0.240  0.9590 -0.3102  1.5502
  223SOL    HW210239   4.199   9.908   0.313 -1.2453 -1.4336 -1.0299
  224SOL     OW10240   4.257   8.972   1.760 -0.1450 -0.0944  0.0095
  224SOL    HW110241   4.196   8.990   1.682  1.3253  0.8162 -0.9578
  224SOL    HW210242   4.262   8.873   1.776 -1.0668 -0.2405 -0.5407
  225SOL     OW10243   2.931   9.220   2.355  0.7055 -0.5628  0.0352
  225SOL    HW110244   2.868   9.146   2.329  0.2571 -0.9444  2.1530
  225SOL    HW210245   2.879   9.299   2.387  1.2282  0.2541 -1.0815
  226SOL     OW10246   3.524   1.495   0.220  0.3027  0.1759  0.2711
  226SOL    HW110247   3.622   1.479   0.207  0.4683  1.5171 -0.2458
  226SOL    HW210248   3.472   1.444   0.153  0.6311 -0.7831  0.7405
  227SOL     OW10249   3.431   8.441   1.555  0.3136  0.6197  0.4120
  227SOL    HW110250   3.331   8.436   1.559  0.2449  1.8715  0.4923
  227SOL    HW210251   3.464   8.388   1.477 -0.2432 -1.6004  1.6288
  228SOL     OW10252   3.216   1.036   2.560 -0.6758  0.0967 -0.4150
  228SOL    HW110253   3.154   0.957   2.554 -1.4646  0.6261  0.5752
  228SOL    HW210254   3.221   1.080   2.470 -0.1396 -1.1377 -1.0038
  229SOL     OW10255   3.334   0.569   2.421 -0.4590 -0.0105 -0.3829
  229SOL    HW110256   3.333   0.480   2.465  1.5091  0.0743 -0.1417
  229SOL    HW210257   3.360   0.639   2.487  1.3393  0.2744 -1.3736
  230SOL     OW10258   4.394   9.862   1.870 -0.0587  0.3697  0.1148
  230SOL    HW110259   4.445   9.872   1.785 -0.6081  1.8321 -0.0530
  230SOL    HW210260   4.395   9.766   1.898 -1.9656 -0.6111 -2.8533
  231SOL     OW10261   3.441   0.583   0.845 -0.1376 -0.1898  0.2573
  231SOL    HW110262   3.451   0.678   0.815  0.7177  0.3004  2.0463
  231SOL    HW210263   3.410   0.581   0.940 -1.9917 -1.7188 -0.3517
  232SOL     OW10264   3.143   8.971   1.111  0.2438  0.6084  0.0517
  232SOL    HW110265   3.171   9.064   1.132  0.8146  0.5600 -0.4678
  232SOL    HW210266   3.066   8.973   1.048  0.7420  0.7325 -0.5640
  233SOL     OW10267   3.861   1.707   1.267  0.0481 -0.1622 -0.5901
  233SOL    HW110268   3.897   1.687   1.176  0.1387 -0.7458 -0.4269
  233SOL    HW210269   3.850   1.806   1.277 -0.1778 -0.1129 -1.3159
  234SOL     OW10270   2.902   9.592   1.218 -0.4155  0.9103 -0.2431
  234SOL    HW110271   2.975   9.656   1.191 -0.1719 -0.0513 -1.9187
  234SOL    HW210272   2.936   9.498   1.213 -1.0710  0.5678  1.2740
  235SOL     OW10273   2.919   9.533   1.884 -0.2397  0.2274  0.0384
  235SOL    HW110274   2.942   9.597   1.956  0.9900  1.2327 -1.2155
  235SOL    HW210275   2.923   9.440   1.919  1.6410  0.6272  0.9408
  236SOL     OW10276   4.195   9.984   1.553 -0.0940 -0.3862  0.4828
  236SOL    HW110277   4.244   9.903   1.519  1.4639  0.1949  1.2914
  236SOL    HW210278   4.176  10.046   1.477 -0.2627 -0.9609  0.0461
  237SOL     OW10279   3.677   8.561   1.123  0.2358  0.1509  0.7029
  237SOL    HW110280   3.643   8.607   1.041 -0.3720 -0.6122  0.5177
  237SOL    HW210281   3.607   8.566   1.195  0.7282  0.7371  1.1474
  238SOL     OW10282   2.779   0.537   2.375  0.3511  0.4959  0.2103
  238SOL    HW110283   2.859   0.595   2.356  0.5289  0.5164  0.9831
  238SOL    HW210284   2.728   0.522   2.291  0.8560  0.9594 -0.1857
  239SOL     OW10285   3.961   9.465   1.469  0.1320 -0.0221  0.1510
  239SOL    HW110286   3.924   9.385   1.516 -0.4728  0.5798  0.7037
  239SOL    HW210287   3.976   9.538   1.535  3.3441 -0.5940  0.1429
  240SOL     OW10288   3.443   1.461   0.506  0.1931 -0.0096 -0.0211
  240SOL    HW110289   3.437   1.514   0.590 -0.2227 -0.8644  0.4982
  240SOL    HW210290   3.460   1.522   0.429 -0.1919  0.8576  0.5745
  241SOL     OW10291   2.792   0.308   1.671  0.1585  0.2175 -0.1755
  241SOL    HW110292   2.865   0.357   1.623  1.4910 -1.5255  0.0161
  241SOL    HW210293   2.716   0.291   1.609 -0.5735  2.9605 -0.1104
  242SOL     OW10294   3.581   9.794   1.865  0.3128  0.1332  0.9040
  242SOL    HW110295   3.545   9.781   1.957 -1.1555  1.2613  0.5110
  242SOL    HW210296   3.611   9.889   1.854 -0.1225  0.1753  0.0253
  243SOL     OW10297   3.717   9.570   1.366  0.7282 -0.1255 -0.0345
  243SOL    HW110298   3.808   9.530   1.376  1.2484  1.0875  0.3184
  243SOL    HW210299   3.722   9.669   1.385 -0.1838  0.4318 -2.5237
  244SOL     OW10300   4.278  10.056   2.105  0.1073 -0.5047 -0.2737
  244SOL    HW110301   4.325  10.017   2.026 -1.4738 -0.0351 -1.4727
  244SOL    HW210302   4.189  10.010   2.116 -0.8926  1.3362 -0.4725
  245SOL     OW10303   2.736   8.657   1.899 -0.2586  0.4074 -0.4105
  245SOL    HW110304   2.724   8.749   1.936 -1.0803  0.8988 -1.8690
  245SOL    HW210305   2.699   8.590   1.963  1.2083  1.0022  1.1060
  246SOL     OW10306   2.553  10.017   0.347 -0.3827  0.0080  0.4129
  246SOL    HW110307   2.513  10.090   0.292 -1.5961 -0.3592  0.7691
  246SOL    HW210308   2.530  10.031   0.444  1.0454  0.2145  0.7249
  247SOL     OW10309   3.818   9.729   0.586 -0.2555  0.4596  0.6037
  247SOL    HW110310   3.897   9.778   0.625  2.6088 -2.5623 -1.0883
  247SOL    HW210311   3.829   9.631   0.602 -2.9764 -0.1524 -0.9655
  248SOL     OW10312   3.171   0.873   1.541  0.8033  0.0199 -0.0211
  248SOL    HW110313   3.191   0.952   1.599 -2.6369 -0.4562  1.9622
  248SOL    HW210314   3.249   0.811   1.542  2.6870  2.2885  0.1839
  249SOL     OW10315   2.486   9.437   1.801 -0.3332  0.2290  0.0983
  249SOL    HW110316   2.571   9.446   1.853 -0.1083 -0.6386 -0.1128
  249SOL    HW210317   2.433   9.522   1.809  1.2141  1.3403 -0.9592
  250SOL     OW10318   2.274   0.379   0.886  0.4986 -0.4156  0.4816
  250SOL    HW110319   2.221   0.418   0.962 -0.2626 -0.0023 -0.2553
  250SOL    HW210320   2.238   0.288   0.864 -0.2385  0.0705 -0.3477
  251SOL     OW10321   4.041   0.842   0.455  0.1507 -0.1094  0.1089
  251SOL    HW110322   3.987   0.868   0.375 -0.6944 -0.2596  0.6290
  251SOL    HW210323   4.125   0.796   0.424  0.0992  0.3202 -0.7031
  252SOL     OW10324   3.383   1.685   1.048 -0.2402 -0.2229 -0.5152
  252SOL    HW110325   3.283   1.691   1.048 -0.0902  2.7533 -0.5436
  252SOL    HW210326   3.411   1.600   1.093 -2.7518 -0.7824  0.0505
  253SOL     OW10327   2.678   0.318   1.430 -0.6505  0.2250  0.1876
  253SOL    HW110328   2.702   0.233   1.384  3.5793  1.9146 -1.0069
  253SOL    HW210329   2.643   0.383   1.363 -1.0173  0.4361  0.5801
  254SOL     OW10330   3.043   0.285   0.680 -0.2181 -0.2614  0.2821
  254SOL    HW110331   2.991   0.205   0.651  1.2774 -0.6644 -1.3912
  254SOL    HW210332   3.022   0.362   0.620 -1.6813  0.6391  1.9076
  255SOL     OW10333   3.152   8.494   1.544 -0.0451  0.0015 -0.0751
  255SOL    HW110334   3.158   8.593   1.554 -0.9588  0.2095 -1.4165
  255SOL    HW210335   3.105   8.472   1.458  0.4258 -1.5925  0.0613
  256SOL     OW10336   3.993   0.190   1.126  0.0204  0.6447 -0.2413
  256SOL    HW110337   4.084   0.194   1.085 -1.0075  0.1784 -2.6937
  256SOL    HW210338   4.001   0.188   1.225  2.7496 -1.1708 -0.4390
  257SOL     OW10339   3.893   1.315   2.473  0.1552 -0.6922  0.4694
  257SOL    HW110340   3.858   1.223   2.459  1.2464 -0.8143 -1.5930
  257SOL    HW210341   3.984   1.322   2.433 -1.0351  2.0803 -1.8684
  258SOL     OW10342   3.113   9.379   0.283  0.1378 -0.1482  0.7483
  258SOL    HW110343   3.017   9.360   0.261  0.1601 -0.9385  1.3334
  258SOL    HW210344   3.118   9.457   0.345 -0.0081  1.1655 -0.8432
  259SOL     OW10345   2.792   8.894   2.043 -0.0704 -0.4344 -0.5206
  259SOL    HW110346   2.877   8.875   2.093  1.3962 -1.4960 -3.3390
  259SOL    HW210347   2.799   8.983   1.998 -0.1737 -0.8494 -1.3535
  260SOL     OW10348   2.971   1.020   1.354 -0.2731 -0.3848  0.1456
  260SOL    HW110349   3.022   0.963   1.418  1.8762  2.3408  0.9300
  260SOL    HW210350   3.024   1.029   1.269 -1.2290 -0.6329 -0.4815
  261SOL     OW10351   4.302   0.746   0.378 -0.2992 -0.2080  0.2362
  261SOL    HW110352   4.373   0.817   0.382 -0.4650  0.0836 -1.5037
  261SOL    HW210353   4.342   0.658   0.402  0.0998  0.3326  1.6012
  262SOL     OW10354   3.523   9.839   2.583  0.0682 -0.4092  0.1688
  262SOL    HW110355   3.528   9.794   2.672  2.4998  1.6965  1.1506
  262SOL    HW210356   3.469   9.923   2.591 -1.1174 -1.0597 -0.7593
  263SOL     OW10357   4.178   8.703   1.841  0.1638  0.4628  0.1801
  263SOL    HW110358   4.084   8.671   1.853  0.1946  0.2433 -0.1718
  263SOL    HW210359   4.212   8.738   1.929 -0.1526  0.2997  0.3708
  264SOL     OW10360   3.734   0.247   0.398 -0.4502  0.3003  0.1105
  264SOL    HW110361   3.673   0.184   0.446 -0.4886  0.8822  0.8304
  264SOL    HW210362   3.763   0.206   0.312 -0.9007 -0.4807  0.3273
  265SOL     OW10363   3.224   0.194   1.134 -0.2703 -0.1269  0.8865
  265SOL    HW110364   3.209   0.292   1.122  0.8180  0.0940  1.2530
  265SOL    HW210365   3.282   0.160   1.061 -1.4279 -0.7020  0.2214
  266SOL     OW10366   2.906   9.457  -0.044  0.1061 -0.1087  0.4165
  266SOL    HW110367   2.917   9.371   0.007 -1.7864  0.0283  1.0796
  266SOL    HW210368   2.821   9.455  -0.095 -1.3987  2.5059  2.6911
  267SOL     OW10369   3.857   0.484   0.472  0.0438 -0.0866 -0.5516
  267SOL    HW110370   3.804   0.528   0.545 -0.6520 -1.5814 -0.1562
  267SOL    HW210371   3.817   0.396   0.449  1.9762 -0.9569 -0.6839
  268SOL     OW10372   2.764  10.110   1.865  0.4929 -0.5023 -0.0276
  268SOL    HW110373   2.781  10.159   1.779  0.4646  0.3872  0.4732
  268SOL    HW210374   2.706  10.031   1.846 -0.5859  0.4151 -0.6391
  269SOL     OW10375   4.265   8.828   2.510  0.2120  0.1789  0.1546
  269SOL    HW110376   4.258   8.733   2.482 -1.2277  0.3647 -0.1526
  269SOL    HW210377   4.302   8.883   2.435  1.7217 -0.2424  0.5750
  270SOL     OW10378   2.806   8.623   0.293  0.0657 -0.2103 -0.0002
  270SOL    HW110379   2.904   8.644   0.294 -0.0270  0.2244  2.1558
  270SOL    HW210380   2.790   8.540   0.345 -0.7072 -0.4200 -0.5667
  271SOL     OW10381   3.788  10.091   0.200  0.0645  0.2426  0.3430
  271SOL    HW110382   3.774  10.011   0.259 -0.6292  1.8999  2.5048
  271SOL    HW210383   3.713  10.098   0.134  0.4312 -1.2026 -0.2315
  272SOL     OW10384   2.891   9.047   0.324  0.0365 -0.4775  0.3738
  272SOL    HW110385   2.834   8.965   0.321 -0.8970  0.1249  1.3931
  272SOL    HW210386   2.982   9.024   0.356 -0.0835 -1.1937  0.2001
  10.00000  10.00000   2.88200
